# vtk DataFile Version 5.1
Generated by LIGGGHTS
ASCII
DATASET POLYDATA
POINTS 407 float
-0.139632 0.0559936 -0.144291 -0.117144 0.0557639 -0.142468 -0.143282 0.069728 -0.144516 
-0.097353 0.0708645 -0.14439 -0.0971251 0.0817778 -0.144423 -0.0749209 0.0833368 -0.144284 
-0.0502744 0.109263 -0.144484 -0.0694147 0.0562638 -0.142289 -0.112777 0.0616337 -0.134653 
-0.0232483 0.0784321 -0.139546 -0.0248364 0.097122 -0.135209 -0.144991 0.0580586 -0.134611 
-0.135227 0.0593178 -0.132775 -0.125914 0.0582353 -0.12902 -0.0736273 0.0550084 -0.127723 
-0.0476579 0.0614582 -0.130633 -0.133017 0.075541 -0.134347 -0.0618189 0.072149 -0.132368 
-0.115716 0.0778252 -0.128465 -0.0234108 0.111116 -0.127356 -0.127336 0.129734 -0.131567 
-0.142987 0.05512 -0.120849 -0.11304 0.0589325 -0.124153 -0.0388584 0.0662744 -0.121907 
-0.0256789 0.0722013 -0.127769 -0.00610511 0.0779747 -0.122697 -0.105205 0.0891951 -0.123886 
-0.105859 0.0691962 -0.116933 -0.0522983 0.0795196 -0.11224 -0.0021864 0.0843891 -0.115207 
-0.028128 0.0610971 -0.108215 -0.0176497 0.0562408 -0.111307 -0.00373172 0.0563971 -0.110759 
-0.00862432 0.0669065 -0.107476 -0.00774559 0.0792417 -0.108217 -0.080661 0.0863443 -0.111994 
-0.0638391 0.110261 -0.11272 -0.0819515 0.137696 -0.11095 -0.0887338 0.0615745 -0.0995259 
-0.0790862 0.0631762 -0.103927 -0.04555 0.0645556 -0.0999804 -0.095472 0.0871675 -0.102557 
-0.0610464 0.0863135 -0.101687 -0.0129476 0.0935932 -0.0978699 -0.0376925 0.150493 -0.103091 
-0.00955705 0.0551841 -0.0964078 -0.0357971 0.0864353 -0.0900887 -0.10571 0.190543 -0.0919336 
-0.0426926 0.078367 -0.0871471 -0.0689821 0.119276 -0.0869889 -0.0862438 0.141775 -0.0889079 
-0.051051 0.168608 -0.0833235 -0.111806 0.0597597 -0.0768465 -0.144415 0.074852 -0.0786632 
-0.0812121 0.0857278 -0.0813424 -0.0889885 0.060358 -0.0708828 -0.0216582 0.056028 -0.0724158 
-0.0848825 0.121392 -0.0727564 -0.0631681 0.145617 -0.0701289 -0.115328 0.164914 -0.0710469 
-0.0197687 0.0636274 -0.0625289 -0.116633 0.105929 -0.0615529 -0.0211916 0.164286 -0.0621746 
-0.0885937 0.0559917 -0.0549734 -0.0560261 0.0673361 -0.0620162 -0.074775 0.0739564 -0.0580173 
-0.0535559 0.0869553 -0.0522062 -0.0327986 0.0958772 -0.0516086 -0.130358 0.101998 -0.0523143 
-0.0122407 0.162043 -0.0527844 -0.116597 0.0551311 -0.044398 -0.00750553 0.0598494 -0.0452955 
-0.109105 0.0633665 -0.0496695 -0.0833903 0.069529 -0.045525 -0.00492711 0.0717005 -0.045401 
-0.0825843 0.153604 -0.048736 -0.0529626 0.172033 -0.0495144 -0.0768929 0.0550106 -0.0389688 
-0.139217 0.0564303 -0.0302839 -0.0740761 0.0651876 -0.0309992 -0.00256882 0.0691131 -0.0316211 
-0.0576655 0.0742188 -0.0330272 -0.0309801 0.0759894 -0.0386403 -0.0435006 0.0834917 -0.0355649 
-0.104349 0.129917 -0.0326997 -0.127583 0.148112 -0.0307968 -0.0571024 0.0550251 -0.0299367 
-0.0625834 0.06535 -0.0247066 -0.127687 0.070942 -0.026169 -0.117909 0.0707892 -0.0293654 
-0.0480298 0.0771745 -0.0238456 -0.0514526 0.0670865 -0.021081 -0.0892739 0.0774041 -0.0198207 
-0.0488331 0.125142 -0.019761 -0.0761519 0.0611656 -0.010636 -0.0711114 0.0847309 -0.00730457 
-0.136037 0.0881906 -0.008044 -0.143967 0.0943116 -0.00951982 -0.0219807 0.0975627 -0.0139835 
-0.0103798 0.120958 -0.0108327 -0.0170054 0.164441 -0.0112998 -0.13938 0.0558429 -0.00772471 
-0.105082 0.0566411 -0.00619536 -0.11255 0.0617886 -0.00196903 -0.0439489 0.13193 -0.00115547 
-0.0257261 0.163985 -0.00299386 -0.0781854 0.0566059 -0.000100098 -0.0127889 0.0791386 -0.000200278 
-0.121022 0.0602027 0.00559018 -0.0945591 0.0575019 0.00507341 -0.0959571 0.145197 0.143106 
-0.0495785 0.0555139 0.000652635 -0.0390809 0.0597731 0.00772168 -0.134012 0.0618064 0.00531714 
-0.0952131 0.066366 0.00034431 -0.0825198 0.0779124 0.144964 -4.79265e-05 0.0813374 0.00318162 
-0.123183 0.0986977 0.00352581 -0.0140179 0.111785 0.00316147 -0.144529 0.0579648 0.0130715 
-0.0554474 0.0551738 0.01236 -0.104577 0.0658124 0.00788323 -0.0174395 0.0649743 0.0161873 
-0.113169 0.0697815 0.0132207 -0.106031 0.0872689 0.0140821 -0.0153093 0.0563973 0.0209898 
-0.12945 0.0647143 0.0153178 -0.118952 0.0643084 0.0201538 -0.00484015 0.0654242 0.0167642 
-0.047579 0.0710902 0.0156145 -0.0900164 0.0868698 0.0154721 -0.135046 0.0550511 0.0251289 
-0.0964351 0.0599693 0.024277 -0.0524285 0.0564487 0.0258148 -0.0827411 0.0634074 0.0233596 
-0.132679 0.0748199 0.0287316 -0.086842 0.138721 0.0242716 -0.0369117 0.192627 0.0300602 
-0.128243 0.0670978 0.0363076 -0.0357999 0.0625947 0.0355514 -0.0276547 0.0684235 0.0300719 
-0.0270347 0.0821286 0.0324369 -0.0426863 0.113045 0.0365814 -0.102567 0.140323 0.0350214 
-0.122138 0.058732 0.042499 -0.0896507 0.0559632 0.0438167 -0.0660325 0.0583124 0.0380291 
-0.015885 0.0560756 0.0427008 -0.12815 0.0951876 0.0437199 -0.0660782 0.154419 0.0377727 
-0.139032 0.0554989 0.05007 -0.0794778 0.0569626 0.0493453 -0.0288788 0.0617567 0.0497282 
-0.0190001 0.0691041 0.0447061 -0.089724 0.138856 0.0464704 -0.0992871 0.144464 0.0494636 
-0.0113872 0.0598323 0.0588293 -0.135594 0.0651572 0.0579354 -0.123174 0.0842132 0.0606978 
-0.0902863 0.0790032 0.060412 -0.112174 0.118629 0.0576658 -0.0401407 0.145045 0.0590509 
-0.140621 0.0555724 0.066337 -0.0483647 0.0613122 0.0672236 -0.0696529 0.090359 0.0611893 
-0.106768 0.160477 0.062131 -0.0515694 0.169247 0.0621647 -0.139662 0.162826 0.0708695 
-0.129558 0.158169 0.074375 -0.0517667 0.165394 0.071402 -0.0187525 0.0913893 0.0752828 
-0.0879775 0.112119 0.0779556 -0.0260893 0.153499 0.0820639 -0.143681 0.101749 0.0854752 
-0.0419014 0.127174 0.0873836 -0.141346 0.150354 0.0840536 -0.120297 0.162797 0.0836254 
-0.0565427 0.0632778 0.0925415 -0.111697 0.133368 0.0904834 -0.0169162 0.135097 0.0973861 
-0.0293337 0.0947415 0.100797 -0.0551083 0.105548 0.103917 -0.121005 0.125626 0.0997588 
-0.140335 0.144694 0.104456 -0.081154 0.153041 0.100836 -0.0298833 0.150452 0.100248 
-0.0368497 0.0659446 0.107117 -0.0629464 0.0994834 0.107656 -0.0699309 0.127229 0.109676 
-0.0598549 0.0891051 0.113297 -0.0755888 0.109708 0.115072 -0.109689 0.124809 0.113556 
-0.041728 0.134073 0.114911 -0.0293559 0.137522 0.112887 -0.0502596 0.117913 0.123153 
-0.132012 0.129368 0.121299 -0.0311337 0.0562498 0.128351 -0.122539 0.115292 0.130503 
-0.100114 0.116338 0.130048 -0.13966 0.0677223 0.140496 -0.0755501 0.0874119 0.138659 
-0.0688524 0.0964877 0.136432 -0.0479485 0.123135 0.140025 -0.0892625 0.0552373 0.143344 
-0.0278118 0.0618269 0.144858 -0.0943424 0.218165 0.0527453 -0.0943424 0.218164 0.0587124 
-0.0883753 0.218165 0.0527454 -0.0883754 0.218164 0.0587124 -0.0943431 0.231684 0.0527471 
-0.0943431 0.231683 0.0587141 -0.088376 0.231684 0.0527471 -0.0883761 0.231683 0.0587142 
0.0135957 0.0550162 -0.14494 0.0228114 0.0608009 -0.144787 0.0419534 0.0564085 -0.142671 
0.00526903 0.0661782 -0.144677 0.0982824 0.0722903 -0.143592 0.144349 0.0909685 -0.14394 
0.126835 0.108012 -0.144236 0.106168 0.114773 -0.144846 0.00699201 0.0550534 -0.136319 
0.031516 0.0557466 -0.138398 0.114674 0.0577279 -0.14065 0.0514026 0.0647919 -0.136642 
0.0646488 0.0728493 -0.139512 0.00909314 0.0801 -0.139737 0.0213756 0.0781999 -0.137407 
0.0986742 0.0947573 -0.139103 0.0789693 0.0550643 -0.129681 0.113106 0.0572198 -0.128926 
0.0114987 0.0659637 -0.13108 0.0257309 0.0617146 -0.132581 0.0327334 0.0720704 -0.12905 
0.0583689 0.0735924 -0.127834 0.0916716 0.0765024 -0.128847 0.0392591 0.0626392 -0.126563 
0.119797 0.119373 -0.122527 0.144131 0.059215 -0.117958 0.0805337 0.0641766 -0.116504 
0.02533 0.0750589 -0.117908 0.066468 0.0764578 -0.115802 0.0998033 0.126434 -0.118207 
0.0301562 0.0572103 -0.106361 0.110888 0.0629118 -0.107496 0.0616653 0.0867117 -0.106927 
0.0439442 0.101935 -0.105185 0.0333687 0.107643 -0.111184 0.117816 0.135427 -0.105018 
0.0382204 0.0583276 -0.0977397 0.00397606 0.0672532 -0.0996162 0.0634976 0.0640452 -0.0984547 
0.0251665 0.0716372 -0.0922156 0.0649284 0.0806423 -0.0973755 0.0922009 0.120848 -0.0953698 
0.136202 0.129989 -0.0934783 0.00763877 0.0614987 -0.0853492 0.0168581 0.0561391 -0.0855042 
0.0477022 0.0568488 -0.0847024 0.113671 0.0598595 -0.0861462 0.133155 0.0554579 -0.0862343 
0.0537505 0.067823 -0.090183 0.039079 0.0704057 -0.0878327 0.0469887 0.0771407 -0.0842095 
0.114577 0.092457 -0.0856064 0.051817 0.105497 -0.0829586 0.0719206 0.125886 -0.0870538 
0.0272485 0.0661577 -0.0771898 0.0151277 0.0710057 -0.0806084 0.0928516 0.0790989 -0.082079 
0.0655466 0.0924109 -0.0803788 0.0188845 0.0631196 -0.0727552 0.0630946 0.0665011 -0.0743498 
0.0385205 0.0890706 -0.0725203 0.108539 0.116589 -0.0705447 0.00928 0.12023 -0.0693214 
0.0791837 0.134616 -0.0731497 0.0150786 0.0599614 -0.0625254 0.0754102 0.063214 -0.0627394 
0.0613623 0.111651 -0.0641945 0.0274236 0.102942 -0.0529571 0.0506738 0.106276 -0.0539837 
0.0853605 0.132401 -0.0564998 0.116199 0.136724 -0.0556868 0.0658769 0.144013 -0.0534876 
0.124056 0.0620346 -0.0466998 0.142709 0.0692001 -0.047682 0.0538023 0.08844 -0.0528582 
0.0418035 0.118938 -0.0449518 0.0224483 0.0751647 -0.0406109 0.020561 0.0960518 -0.0366237 
0.142683 0.0977633 -0.042206 0.0111491 0.120046 -0.0384445 0.0682014 0.125788 -0.0405511 
0.0841556 0.132819 -0.0402994 0.0472212 0.0819961 -0.0347268 0.134017 0.0801921 -0.0304769 
0.0373838 0.153222 -0.0362525 0.0810246 0.0555955 -0.0301169 0.0416982 0.0646487 -0.0253059 
0.058036 0.0908839 -0.023664 0.0703231 0.0914708 -0.0258468 0.0190588 0.11338 -0.0269858 
0.109965 0.0564425 -0.0236302 0.0634441 0.0642278 -0.0205101 0.143627 0.072927 -0.0160005 
0.138628 0.0970183 -0.0230952 0.0480222 0.111076 -0.0233586 0.0439051 0.0727603 -0.0155812 
0.0906265 0.0747378 -0.0116326 0.138902 0.0936689 -0.00969787 0.0314107 0.0590762 -0.00721391 
0.0405146 0.056662 -0.00196118 0.118836 0.0590416 -0.00400787 0.140437 0.0725525 -0.00350431 
0.0796698 0.0864278 -0.0034424 0.0512353 0.106941 -0.00291311 0.144795 0.120856 -0.00638221 
0.0107598 0.126302 -0.00571595 0.071551 0.0567713 0.00612566 0.13052 0.0661005 0.00379005 
0.11533 0.0611126 0.0112215 0.0750442 0.0700525 0.0116194 0.0950792 0.0747146 0.0138483 
0.0244215 0.0827026 0.011326 0.111083 0.0798173 0.00837852 0.0207789 0.123406 0.00898076 
0.120423 0.11908 0.0113413 0.0882227 0.0617726 0.0184326 0.103366 0.0628235 0.0195051 
0.042153 0.0612825 0.0247331 0.105004 0.0584706 0.029656 0.0722956 0.070077 0.0258198 
0.0515397 0.086309 0.0270274 0.0254694 0.115521 0.0241361 0.0822851 0.0589592 0.0310953 
0.134934 0.0653806 0.0374767 0.0603356 0.0724988 0.0351857 0.110009 0.0727321 0.0322652 
0.0165395 0.0877412 0.0368043 0.0759086 0.0551173 0.0430724 0.127261 0.0556193 0.0403384 
0.0609672 0.0658252 0.0439693 0.0845764 0.0749147 0.0405224 0.141859 0.0701836 0.0436448 
0.0420252 0.0860695 0.0377244 0.0315408 0.1442 0.038838 0.104929 0.144294 0.0431236 
0.018391 0.0557145 0.0513387 0.0333364 0.0582569 0.0520416 0.0741288 0.0675001 0.0501509 
0.134581 0.0640892 0.0503126 0.0202496 0.0731851 0.0472191 0.112316 0.0718363 0.0594388 
0.110768 0.108847 0.0562283 0.0852251 0.111727 0.0569815 0.0397136 0.127351 0.0560384 
0.000912893 0.137982 0.0534521 0.0371029 0.056808 0.0671226 0.000582045 0.131673 0.0630204 
0.0996461 0.155243 0.0669345 0.00432279 0.0720314 0.0744128 0.135259 0.149821 0.0715377 
0.108273 0.16402 0.0738417 0.0233822 0.0551579 0.0820411 0.119008 0.0684507 0.0826968 
0.125682 0.0805924 0.0770581 0.138519 0.119267 0.0811636 0.0512079 0.148679 0.0781799 
0.139784 0.0709951 0.0903105 0.0355317 0.0851472 0.0840378 0.097969 0.0959735 0.088748 
0.0489102 0.10126 0.08536 0.141791 0.0605421 0.0901767 0.0143745 0.0899385 0.0909043 
0.0890702 0.135486 0.0902429 0.00955421 0.0606537 0.0979265 0.0634663 0.0577812 0.0996926 
0.107961 0.0711008 0.0989026 0.00660229 0.0902778 0.103331 0.100719 0.0962999 0.101227 
0.07042 0.134524 0.104579 0.137186 0.0762906 0.108752 0.0551832 0.0856147 0.106264 
0.126726 0.100348 0.106034 0.0238315 0.118515 0.110273 0.0157633 0.0552302 0.118399 
0.0679497 0.0953917 0.113254 0.076567 0.149635 0.11746 0.0430791 0.16219 0.116819 
0.0871085 0.0550493 0.124953 0.0249653 0.0633646 0.126209 0.0361385 0.085519 0.122175 
0.0671721 0.0851004 0.120921 0.0142071 0.152527 0.122629 0.020191 0.0773015 0.131104 
0.0277598 0.0912217 0.133868 0.128307 0.155973 0.128589 0.125045 0.0609298 0.139121 
0.137403 0.062595 0.138669 0.135318 0.0862239 0.139759 0.0806615 0.124046 0.139717 
0.0430419 0.131207 0.136127 0.00379501 0.169287 0.139226 0.014061 0.152661 0.144453 
0.114915 0.164834 0.143182 0.0410044 0.145877 0.00209698 
VERTICES 408 407
OFFSETS vtktypeint64
0 1 2 3 4 5 6 7 8 
9 10 11 12 13 14 15 16 17 
18 19 20 21 22 23 24 25 26 
27 28 29 30 31 32 33 34 35 
36 37 38 39 40 41 42 43 44 
45 46 47 48 49 50 51 52 53 
54 55 56 57 58 59 60 61 62 
63 64 65 66 67 68 69 70 71 
72 73 74 75 76 77 78 79 80 
81 82 83 84 85 86 87 88 89 
90 91 92 93 94 95 96 97 98 
99 100 101 102 103 104 105 106 107 
108 109 110 111 112 113 114 115 116 
117 118 119 120 121 122 123 124 125 
126 127 128 129 130 131 132 133 134 
135 136 137 138 139 140 141 142 143 
144 145 146 147 148 149 150 151 152 
153 154 155 156 157 158 159 160 161 
162 163 164 165 166 167 168 169 170 
171 172 173 174 175 176 177 178 179 
180 181 182 183 184 185 186 187 188 
189 190 191 192 193 194 195 196 197 
198 199 200 201 202 203 204 205 206 
207 208 209 210 211 212 213 214 215 
216 217 218 219 220 221 222 223 224 
225 226 227 228 229 230 231 232 233 
234 235 236 237 238 239 240 241 242 
243 244 245 246 247 248 249 250 251 
252 253 254 255 256 257 258 259 260 
261 262 263 264 265 266 267 268 269 
270 271 272 273 274 275 276 277 278 
279 280 281 282 283 284 285 286 287 
288 289 290 291 292 293 294 295 296 
297 298 299 300 301 302 303 304 305 
306 307 308 309 310 311 312 313 314 
315 316 317 318 319 320 321 322 323 
324 325 326 327 328 329 330 331 332 
333 334 335 336 337 338 339 340 341 
342 343 344 345 346 347 348 349 350 
351 352 353 354 355 356 357 358 359 
360 361 362 363 364 365 366 367 368 
369 370 371 372 373 374 375 376 377 
378 379 380 381 382 383 384 385 386 
387 388 389 390 391 392 393 394 395 
396 397 398 399 400 401 402 403 404 
405 406 407 
CONNECTIVITY vtktypeint64
0 1 2 3 4 5 6 7 8 
9 10 11 12 13 14 15 16 17 
18 19 20 21 22 23 24 25 26 
27 28 29 30 31 32 33 34 35 
36 37 38 39 40 41 42 43 44 
45 46 47 48 49 50 51 52 53 
54 55 56 57 58 59 60 61 62 
63 64 65 66 67 68 69 70 71 
72 73 74 75 76 77 78 79 80 
81 82 83 84 85 86 87 88 89 
90 91 92 93 94 95 96 97 98 
99 100 101 102 103 104 105 106 107 
108 109 110 111 112 113 114 115 116 
117 118 119 120 121 122 123 124 125 
126 127 128 129 130 131 132 133 134 
135 136 137 138 139 140 141 142 143 
144 145 146 147 148 149 150 151 152 
153 154 155 156 157 158 159 160 161 
162 163 164 165 166 167 168 169 170 
171 172 173 174 175 176 177 178 179 
180 181 182 183 184 185 186 187 188 
189 190 191 192 193 194 195 196 197 
198 199 200 201 202 203 204 205 206 
207 208 209 210 211 212 213 214 215 
216 217 218 219 220 221 222 223 224 
225 226 227 228 229 230 231 232 233 
234 235 236 237 238 239 240 241 242 
243 244 245 246 247 248 249 250 251 
252 253 254 255 256 257 258 259 260 
261 262 263 264 265 266 267 268 269 
270 271 272 273 274 275 276 277 278 
279 280 281 282 283 284 285 286 287 
288 289 290 291 292 293 294 295 296 
297 298 299 300 301 302 303 304 305 
306 307 308 309 310 311 312 313 314 
315 316 317 318 319 320 321 322 323 
324 325 326 327 328 329 330 331 332 
333 334 335 336 337 338 339 340 341 
342 343 344 345 346 347 348 349 350 
351 352 353 354 355 356 357 358 359 
360 361 362 363 364 365 366 367 368 
369 370 371 372 373 374 375 376 377 
378 379 380 381 382 383 384 385 386 
387 388 389 390 391 392 393 394 395 
396 397 398 399 400 401 402 403 404 
405 406 
POINT_DATA 407
FIELD FieldData 8
id 1 407 int
3781 3745 3801 3994 3970 3744 3884 2648 2755 
3937 3726 3894 2739 3785 3931 2901 3823 3917 
3023 3959 3907 3024 3586 3296 3749 3773 3987 
3981 3903 3025 3852 3844 3730 3943 3858 3180 
3802 3403 3757 3685 3960 3359 3830 3711 3734 
3405 3873 3740 3242 3976 3824 2756 3727 3716 
3908 3814 3731 3949 3767 3026 3877 3243 3404 
3360 3808 3932 3686 3774 2823 3181 3853 2962 
2961 3758 2749 3687 2825 3918 3297 3786 2482 
2824 3738 3809 3878 3759 3961 3919 3896 3135 
3995 3787 3939 3895 3938 3996 3815 3920 3244 
3519 3133 3925 3885 3182 3845 3134 3746 3879 
2902 3720 3722 3975 3782 3982 3971 3875 3263 
3951 3953 3688 3962 3831 3835 3950 3909 3810 
3825 3803 2963 3940 3988 3836 3631 3747 3775 
3955 3794 3816 3854 3406 3587 3846 3989 3783 
3760 3768 3788 3847 3728 3735 3863 3911 3461 
3906 2826 3769 3871 3864 3941 3910 3859 3795 
3721 3136 3761 3299 2757 3245 3407 2964 3765 
3904 3588 3776 3898 3736 3183 3754 3865 3817 
2509 3874 3886 3804 3748 2649 3954 3997 3880 
3963 3837 3933 3866 3855 3984 3887 3977 3921 
3897 3729 3956 3632 3690 3689 3848 4002 4003 
4006 4007 4004 4005 4008 4001 3899 3849 3161 
3927 3900 3876 3905 3942 3972 3818 3934 3838 
3811 3952 3789 3957 3741 3717 3978 3964 3762 
3860 3440 2927 3965 3867 2989 3922 3784 3944 
3888 3945 3985 2867 3796 3839 3665 3819 3755 
3208 3856 3666 3868 3766 3737 2748 3812 3869 
2591 3770 3778 3712 3691 3826 3889 2481 3441 
3840 3805 3162 3881 3386 3793 3832 3966 3777 
3262 3891 3797 3841 3827 3813 2483 3850 3806 
3929 3763 3915 2751 2750 3928 3842 3999 3946 
3713 3324 3385 3613 3614 3990 3851 3723 3890 
3771 3973 3991 3923 3913 3714 3779 3914 3442 
3870 3901 3912 3882 3764 3791 2690 3820 3732 
2790 3828 3084 3742 3718 3692 3790 3979 3667 
3668 3986 3974 3947 3750 3998 3924 3916 2928 
3739 3892 3715 2484 3756 3807 3298 3926 3993 
3751 3719 3833 3799 4000 3821 3834 3861 3862 
3520 3325 3752 3209 3843 3930 3958 3780 2752 
3326 3798 3980 3443 3772 3857 3829 2550 3968 
2868 3983 3902 3822 3733 3872 3992 3743 3792 
3800 3753 3521 3935 3883 2753 3725 3694 3969 
3967 3724 3936 3444 3693 3948 3893 2754 2990 
3163 3518 
type 1 407 int
2 2 2 2 2 2 2 2 2 
2 2 2 2 2 2 2 2 2 
2 2 2 2 2 2 2 2 2 
2 2 2 2 2 2 2 2 2 
2 2 2 2 2 2 2 2 2 
2 2 2 2 2 2 2 2 2 
2 2 2 2 2 2 2 2 2 
2 2 2 2 2 2 2 2 2 
2 2 2 2 2 2 2 2 2 
2 2 2 2 2 2 2 2 2 
2 2 2 2 2 2 2 2 2 
2 2 2 2 2 2 2 2 2 
2 2 2 2 2 2 2 2 2 
2 2 2 2 2 2 2 2 2 
2 2 2 2 2 2 2 2 2 
2 2 2 2 2 2 2 2 2 
2 2 2 2 2 2 2 2 2 
2 2 2 2 2 2 2 2 2 
2 2 2 2 2 2 2 2 2 
2 2 2 2 2 2 2 2 2 
2 2 2 2 2 2 2 2 2 
2 2 2 2 2 2 2 2 2 
2 2 2 2 2 2 2 2 2 
2 2 2 2 2 2 2 2 2 
2 2 2 2 2 2 2 2 2 
2 2 2 2 2 2 2 2 2 
2 2 2 2 2 2 2 2 2 
2 2 2 2 2 2 2 2 2 
2 2 2 2 2 2 2 2 2 
2 2 2 2 2 2 2 2 2 
2 2 2 2 2 2 2 2 2 
2 2 2 2 2 2 2 2 2 
2 2 2 2 2 2 2 2 2 
2 2 2 2 2 2 2 2 2 
2 2 2 2 2 2 2 2 2 
2 2 2 2 2 2 2 2 2 
2 2 2 2 2 2 2 2 2 
2 2 2 2 2 2 2 2 2 
2 2 2 2 2 2 2 2 2 
2 2 2 2 2 2 2 2 2 
2 2 2 2 2 2 2 2 2 
2 2 2 2 2 2 2 2 2 
2 2 2 2 2 2 2 2 2 
2 2 2 2 2 2 2 2 2 
2 2 2 2 2 2 2 2 2 
2 2 
i 3 407 int
0 0 0 0 0 0 0 0 0 
0 0 0 0 0 0 0 0 0 
0 0 0 0 0 0 0 0 0 
0 0 0 0 0 0 0 0 0 
0 0 0 0 0 0 0 0 0 
0 0 0 0 0 0 0 0 0 
0 0 0 0 0 0 0 0 0 
0 0 0 0 0 0 0 0 0 
0 0 0 0 0 0 0 0 0 
0 0 0 0 0 0 0 0 0 
0 0 0 0 0 0 0 0 0 
0 0 0 0 0 0 0 0 0 
0 0 0 0 0 0 0 0 0 
0 0 0 0 0 0 0 0 0 
0 0 0 0 0 0 0 0 0 
0 0 0 0 0 0 0 0 0 
0 0 0 0 0 0 0 0 0 
0 0 0 0 0 0 0 0 0 
0 0 0 0 0 0 0 0 0 
0 0 0 0 0 0 0 0 0 
0 0 0 0 0 0 0 0 0 
0 0 0 0 0 0 0 0 0 
0 0 0 0 0 0 0 0 0 
0 0 0 0 0 0 0 0 0 
0 0 0 0 0 0 0 0 0 
0 0 0 0 0 0 0 0 0 
0 0 0 0 0 0 0 0 0 
0 0 0 0 0 0 0 0 0 
0 0 0 0 0 0 0 0 0 
0 0 0 0 0 0 0 0 0 
0 0 0 0 0 0 0 0 0 
0 0 0 0 0 0 0 0 0 
0 0 0 0 0 0 0 0 0 
0 0 0 0 0 0 0 0 0 
0 0 0 0 0 0 0 0 0 
0 0 0 0 0 0 0 0 0 
0 0 0 0 0 0 0 0 0 
0 0 0 0 0 0 0 0 0 
0 0 0 0 0 0 0 0 0 
0 0 0 0 0 0 0 0 0 
0 0 0 0 0 0 0 0 0 
0 0 0 0 0 0 0 0 0 
0 0 0 0 0 0 0 0 0 
0 0 0 0 0 0 0 0 0 
0 0 0 0 0 0 0 0 0 
0 0 0 0 0 0 0 0 0 
0 0 0 0 0 0 0 0 0 
0 0 0 0 0 0 0 0 0 
0 0 0 0 0 0 0 0 0 
0 0 0 0 0 0 0 0 0 
0 0 0 0 0 0 0 0 0 
0 0 0 0 0 0 0 0 0 
0 0 0 0 0 0 0 0 0 
0 0 0 0 0 0 0 0 0 
0 0 0 0 0 0 0 0 0 
0 0 0 0 0 0 0 0 0 
0 0 0 0 0 0 0 0 0 
0 0 0 0 0 0 0 0 0 
0 0 0 0 0 0 0 0 0 
0 0 0 0 0 0 0 0 0 
0 0 0 0 0 0 0 0 0 
0 0 0 0 0 0 0 0 0 
0 0 0 0 0 0 0 0 0 
0 0 0 0 0 0 0 0 0 
0 0 0 0 0 0 0 0 0 
0 0 0 0 0 0 0 0 0 
0 0 0 0 0 0 0 0 0 
0 0 0 0 0 0 0 0 0 
0 0 0 0 0 0 0 0 0 
0 0 0 0 0 0 0 0 0 
0 0 0 0 0 0 0 0 0 
0 0 0 0 0 0 0 0 0 
0 0 0 0 0 0 0 0 0 
0 0 0 0 0 0 0 0 0 
0 0 0 0 0 0 0 0 0 
0 0 0 0 0 0 0 0 0 
0 0 0 0 0 0 0 0 0 
0 0 0 0 0 0 0 0 0 
0 0 0 0 0 0 0 0 0 
0 0 0 0 0 0 0 0 0 
0 0 0 0 0 0 0 0 0 
0 0 0 0 0 0 0 0 0 
0 0 0 0 0 0 0 0 0 
0 0 0 0 0 0 0 0 0 
0 0 0 0 0 0 0 0 0 
0 0 0 0 0 0 0 0 0 
0 0 0 0 0 0 0 0 0 
0 0 0 0 0 0 0 0 0 
0 0 0 0 0 0 0 0 0 
0 0 0 0 0 0 0 0 0 
0 0 0 0 0 0 0 0 0 
0 0 0 0 0 0 0 0 0 
0 0 0 0 0 0 0 0 0 
0 0 0 0 0 0 0 0 0 
0 0 0 0 0 0 0 0 0 
0 0 0 0 0 0 0 0 0 
0 0 0 0 0 0 0 0 0 
0 0 0 0 0 0 0 0 0 
0 0 0 0 0 0 0 0 0 
0 0 0 0 0 0 0 0 0 
0 0 0 0 0 0 0 0 0 
0 0 0 0 0 0 0 0 0 
0 0 0 0 0 0 0 0 0 
0 0 0 0 0 0 0 0 0 
0 0 0 0 0 0 0 0 0 
0 0 0 0 0 0 0 0 0 
0 0 0 0 0 0 0 0 0 
0 0 0 0 0 0 0 0 0 
0 0 0 0 0 0 0 0 0 
0 0 0 0 0 0 0 0 0 
0 0 0 0 0 0 0 0 0 
0 0 0 0 0 0 0 0 0 
0 0 0 0 0 0 0 0 0 
0 0 0 0 0 0 0 0 0 
0 0 0 0 0 0 0 0 0 
0 0 0 0 0 0 0 0 0 
0 0 0 0 0 0 0 0 0 
0 0 0 0 0 0 0 0 0 
0 0 0 0 0 0 0 0 0 
0 0 0 0 0 0 0 0 0 
0 0 0 0 0 0 0 0 0 
0 0 0 0 0 0 0 0 0 
0 0 0 0 0 0 0 0 0 
0 0 0 0 0 0 0 0 0 
0 0 0 0 0 0 0 0 0 
0 0 0 0 0 0 0 0 0 
0 0 0 0 0 0 0 0 0 
0 0 0 0 0 0 0 0 0 
0 0 0 0 0 0 0 0 0 
0 0 0 0 0 0 0 0 0 
0 0 0 0 0 0 0 0 0 
0 0 0 0 0 0 0 0 0 
0 0 0 0 0 0 0 0 0 
0 0 0 0 0 0 0 0 0 
0 0 0 0 0 0 0 0 0 
0 0 0 0 0 0 
v 3 407 double
0.011437581343 0.0064495035338 -0.011133559874 -0.0056303209371 0.0085283445581 0.016039859049 0.010048934566 -0.00070430313784 0.0034683114765 
-0.015970077835 0.15166809512 0.0078683031147 -0.13317801248 0.16221021249 0.0070055395523 0.0084999301845 0.1323890659 0.0081926522313 
0.0041098429884 0.30328549985 0.0085481915591 -0.027173646627 0.011902077028 0.021408443641 -0.015825932323 -0.0093599622889 0.054880867859 
0.00042695319134 0.13846042764 0.029105660503 0.088754276994 0.22662720955 0.01755179333 0.0044542912686 0.0044792391661 -0.0028735795761 
-0.038947120116 0.041085962261 -0.010552042006 -0.021953360345 0.025884201396 0.04599242959 -0.055110835015 0.016838623604 0.044337729087 
0.019798951085 0.040401127349 0.0076420378047 -0.027682094838 0.035560805087 0.07204171858 -0.078830096885 0.05744859893 0.00019912973901 
-0.032235806057 0.015450186834 0.090000174597 -0.00066328633309 0.27334262606 0.093316999735 0 0.410001241 0 
0.012445841211 0.010247161759 0.022377678425 -0.052806535397 0.024323413529 0.073682984456 0.012718550083 0.067616469755 0.01425317236 
-0.19048707261 0.037453699347 -0.044591951551 -0.046543241901 0.073906791384 0.057776194531 -0.031250205073 0.21919385107 0.082559184695 
0.096087284017 0.12261288527 -0.004294039915 0.035121297983 0.12847363527 0.096812815135 0.080083059495 0.1932706412 -0.029612981518 
-0.024108631974 0.052866387327 -0.0092589620461 -0.023837693753 0.013424326694 0.030482934101 -0.058613904815 0.041850075802 0.013848537458 
0.010421709988 0.032597662155 0.089304931032 0.0527175037 0.1461298439 -0.014994661505 -0.005644904192 0.11634111591 0.004857108426 
-0.040956546694 0.26237529859 -0.077021290032 -0.0096575554909 0.27005267014 0.0080604148417 0.17906924697 0.04465336239 0.12954131523 
0.12933529232 0.042588217061 0.051919416551 -0.097092786944 0.060812066546 0.13240196031 -0.097613623005 0.14261836488 -0.069878233524 
-0.02568388976 0.17898130461 0.043235618101 0.15312727312 0.17656285951 -0.0069606360303 0 0.39896583638 0 
0.30881003608 0.012721137346 -0.30261967858 -0.041178332009 0.14957725344 0.14796284926 -0.013439671783 0.51232874696 -0.080587636658 
8.7304082862e-05 0.05658216547 0.0490846904 -0.00010155981897 0.4026845298 0.00010091191765 0 0.4099646538 0 
0 0.39895779965 -0.0048950405667 -0.023683525094 0.038479039595 0.077669425022 -0.21182349314 0.046633813357 -0.020952048906 
-0.21558529215 -0.019513045433 -0.17941226195 0.11795535952 0.0097730096812 0.18953233749 -0.12936023577 -0.043487840632 0.063024878278 
0 0.39875905054 0 -0.004507024569 0.40045571211 -0.019038581245 -1.4485258125e-05 0.39873630553 -3.634419112e-05 
-0.051741169069 0.04058371722 -0.053836692909 0.0073616794846 0.22860097262 0.0056379145434 0.013750131286 0.41310435568 -0.010249234026 
-0.099909780889 0.037548871686 -0.10337260641 0.022134701501 0.099469048355 -0.23615431165 0.0048568421874 0.08945452959 -0.10391745121 
-0.082935369571 0.12454513688 0.22031739751 0.1287683514 0.19121853907 0.11076579337 0.048239276178 0.099225294711 0.24497616456 
-0.0006249839803 0.39654364795 -0.0035443033661 0.015375255919 -0.023868632225 0.098219229795 -0.0039167831326 0.051254836739 -0.001557137884 
0.0720265258 0.092481050782 0.10567728676 0.21273066105 0.083784470045 0.0040210919325 -0.035862658324 0.090291244517 0.064308977049 
0 0.39374558319 -0.0047274651976 0 0.41049660782 0 0.016865480206 0.009155321853 -0.074806218358 
0.030768952669 0.038366551808 0.3088595884 0.15621356275 -0.0050176625416 0.10500660734 -0.019593090008 0.057115403233 0.099738465183 
0.14831821886 0.096433713588 0.0054818525004 -0.36665433723 0.044243831614 -0.19837922569 0.15225154347 0.067580660551 -0.094471712005 
0 0.39904491296 0 0 0.40508628054 1.1391752074e-05 0.095677381331 0.0044200649861 -0.086041273012 
0.051333330431 7.1765048961e-05 0.015171943212 -0.10659233928 0.13529730026 -0.13355815864 0.011388376557 0.041364487349 -0.11565082641 
0.11689517866 0.034012877468 -0.026184469839 0.11173750803 0.065437441398 -0.013712116863 -0.016476201133 0.099454444818 -0.084306564822 
0 0.38773520475 0 0.031590655792 0.043572963739 -0.02529784089 -0.0061600299512 0.11429591419 0.13432692073 
-0.10258678328 0.17127616261 -0.033722008942 0.065477573528 0.14861542188 -0.07792335644 -0.011140416409 0.097767829241 -0.12921837017 
-0.081077584478 0.27179021998 -0.19453844851 -0.0030995011966 0.4005287818 -0.0015598553611 0.040199520073 -0.095870598549 -0.086165661967 
-0.040935584861 0.0080659946873 -0.037605969439 -0.05241557277 -7.6474465414e-05 -0.038101718797 -0.018713004647 0.38875185117 7.8913229596e-15 
0.0017389604782 0.39882328398 -0.0017389604782 -0.02456028625 0.011359228832 -0.0113720337 -0.033229108723 0.13146619811 -0.072439225811 
-0.041395108312 0.030254707256 -0.015962865519 -0.046082577918 0.018225688334 0.024099985736 -0.22880268682 0.26789886558 -0.019808350501 
0.027032685635 0.021794619309 -0.024559164227 0.077184004256 0.066064098953 0.077633274331 0.019787213071 -0.021501967877 -0.04342603547 
-0.081684893755 -0.022103683302 -0.017092402979 -0.11058254601 0.078415922352 0.052079232922 0.0076454314498 0.10692208556 -0.019647122656 
-0.3079784592 0.20546468663 -0.29548681616 -0.15104217532 0.21350433729 -0.08847513098 0.0050133738183 0.03415893043 0.0051985059679 
0.068136284096 -0.014428601502 0.0099872882492 -0.04239299415 0.032731008683 -0.025360640441 0.14414420127 0.070733586407 0.116579113 
0.006069576639 0.039127362139 0.043807565819 -0.093883439559 0.14252171153 0.082969879669 0.073524872124 -0.0089080269211 0.085640873075 
-0.0094375276358 0.047072839183 -0.0043676764478 0.0072362702748 0.058305934916 0.019862412065 0.08384646776 0.068416862212 0.012924444158 
0.058087612515 0.020893658911 0.057573748421 -0.029513261594 0.16173266479 0.02841832475 0.058714015235 0.0017270508604 -0.0052240249124 
-0.046054797591 0.035397971386 0.092164701031 0.045861773211 0.010416166083 0.066043061475 -0.021958819501 0.054191597684 0.048298013441 
0.024759942221 0.078324211804 0.044473428344 -0.0021049833578 0.38899466784 -0.000126565171 0.14839527413 0.58811835358 0.043079860813 
-0.065001341762 0.019554148352 0.081816480773 0.0058662362083 -0.0047575354982 0.1205492242 0.026945964456 0.018330502396 0.0051605768176 
0.13707801014 0.10385176188 0.11392848556 -0.00052740355422 0.38710693906 -0.0011288573072 -0.0020887119363 0.38986351732 -0.0070491576428 
-0.055878085168 0.018552676409 0.077319089015 0.041737892857 0.0073860254482 0.11542297028 -0.0096835260449 0.035256949499 0.052062394919 
-0.029110559063 0.018207847277 -0.076876075613 -0.028734807798 0.24194419456 -0.0010331898798 0 0.41007381017 0 
0.048787878444 0.025521855283 0.10157198777 0.021090019239 0.040968074452 -0.041410956983 0.17678183662 0.045691837597 0.11687765623 
-0.20612077071 0.03697736462 -0.10285249585 -0.0016610994383 0.29654940525 0.0087496036546 0.0020429030869 0.39521847008 -0.0010600737839 
-0.036678867017 0.018828960769 0.032514711551 -0.1805049794 0.05781629622 -0.033949824544 0.031131950044 0.032706997154 0.10031977015 
-0.13645977946 0.12244416595 0.087249181893 0.012190777852 0.32929773123 0.012633784709 0 0.41052549956 0 
0.047994318171 0.039418765254 0.071322416347 -0.00044574958215 0.029243049089 0.10201140501 -0.018697854525 0.19836571032 0.034234384001 
0 0.39882697079 0 0 0.39925497113 0 0.00056348824668 0.40152978625 0.00027402949384 
0.0023122065005 0.39628274053 0.0023597342796 0 0.39875819248 -0.0097057056303 -0.076416026534 0.17725342488 -0.024615689046 
0.044804293718 0.32049728826 -0.0062287931832 0 0.38755395842 -0.0050852537353 0.08060329694 0.0325350987 0.01274380369 
0.0002814165965 0.39586236908 -0.0042450652735 0 0.39872827304 0 -8.0938774001e-06 0.39894161244 0 
0.16820795446 0.029549338883 0.12446726565 -0.00036883905222 0.40129851273 -0.0077537456699 0 0.38761842277 0 
-0.0033082998542 0.13377592098 -0.0033247496929 0.042256730961 0.27150018908 0.1254322865 0.0012503121485 0.38702661056 -0.005926866043 
0 0.41016565709 9.1963837408e-06 0.0002436659938 0.41148920957 0.0063921664547 -0.0046666478446 0.28784143851 -0.0046798590522 
-0.012212897362 0.075823784745 -0.18361467497 0.033991363402 0.19247764267 -0.017820487125 -0.027545708121 0.38422685286 0.11030070993 
-0.018673129003 0.22509155007 0.014510142177 -0.019718467175 0.29448520505 0.12092734083 0 0.3987994427 6.9043932791e-06 
0.0024336544151 0.40286253151 0.0042270621109 -0.002634341908 0.41110012695 0.0010203462189 -0.00032362647397 0.39932044177 -0.0012764948875 
0.00051441565056 0.39864167423 0.0017178022421 0.018667793496 0.027909356118 -0.091149253707 0.020188320678 0.34687093157 -0.00040929342903 
0.086053560792 0.32893311383 -0.0017445639745 -0.30057167303 -0.0057001018753 -0.016076409613 -0.086578056441 0.10680729925 0.059412929678 