# vtk DataFile Version 5.1
Generated by LIGGGHTS
ASCII
DATASET POLYDATA
POINTS 1114 float
-0.136923 0.0560408 -0.143922 -0.140167 0.0695097 -0.143441 -0.0148481 0.0745026 -0.14252 
-0.000431558 0.0556879 -0.0693223 -0.00219841 0.130362 -0.00249824 -0.143597 0.0605618 -0.135645 
-0.11889 0.0584077 -0.137496 -0.0778385 0.0599534 -0.135653 -0.000778907 0.0639532 -0.137591 
-0.0847299 0.0838119 -0.141592 -0.00473348 0.103567 -0.137893 -0.102304 0.117882 -0.141951 
-0.13841 0.132063 -0.142251 -0.0722859 0.124377 -0.141745 -0.0765356 0.191597 -0.136597 
-0.00864268 0.0868188 -0.000702206 -0.108094 0.0779112 -0.00274466 -0.13266 0.0713576 -0.133274 
-0.0415202 0.0739825 -0.128264 -0.0862562 0.0899581 -0.132306 -0.0136484 0.0952097 -0.129342 
-0.023116 0.121355 -0.130524 -0.14447 0.0673484 -0.124184 -0.125732 0.131379 -0.124219 
-0.139129 0.0582966 -0.113912 -0.117683 0.0587321 -0.11764 -0.0907117 0.0602283 -0.113978 
-0.132719 0.0662594 -0.114762 -0.1445 0.0903628 -0.115605 -0.0349157 0.0872355 -0.117488 
-0.0760722 0.107206 -0.118264 -0.123266 0.0631015 -0.11027 -0.0356017 0.0774856 -0.111085 
-0.124427 0.0899899 -0.110174 -0.0205335 0.100886 -0.104787 -0.0824109 0.12241 -0.110488 
-0.0250394 0.0604023 -0.101857 -0.130722 0.0669024 -0.101469 -0.0598771 0.0791824 -0.103169 
-0.114893 0.157145 -0.0982929 -0.0236164 0.195853 -0.0984275 -0.0747684 0.114722 -0.0920318 
-0.0571972 0.123517 -0.0967036 -0.0467311 0.0552582 -0.0821194 -0.0413687 0.0674826 -0.0891555 
-0.0414107 0.119346 -0.0822279 -0.0690084 0.141798 -0.088284 -0.0388395 0.0770674 -0.076961 
-0.00539359 0.0770117 -0.0797917 -0.12219 0.0608088 -0.0733645 -0.119207 0.0765206 -0.0716193 
-0.0426655 0.0959075 -0.0719309 -0.0548501 0.05992 -0.0614744 -0.0332223 0.075417 -0.0593681 
-0.114378 0.0836122 -0.0652171 -0.0274424 0.0563954 -0.0566095 -0.119148 0.0716882 -0.052769 
-0.138821 0.106129 -0.0576313 -0.0254343 0.127871 -0.0540412 -0.125172 0.177102 -0.0573291 
-0.114351 0.176796 -0.0598052 -0.0718805 0.0588152 -0.0477449 -0.00871973 0.0757384 -0.0457783 
-0.0943815 0.108235 -0.0459557 -0.0148688 0.117581 -0.0527619 -0.0485624 0.132804 -0.0442202 
-0.0496619 0.0827663 -0.039779 -0.0174438 0.0955022 -0.0442785 -0.0155576 0.105787 -0.0379498 
-0.109191 0.0584419 -0.0234335 -0.00621939 0.0663787 -0.0267233 -0.00996644 0.0853829 -0.0254391 
-0.00942978 0.104715 -0.0289657 -0.137787 0.108093 -0.0305947 -0.060841 0.177972 -0.0242658 
-0.118312 0.0561677 -0.0151709 -0.0663588 0.0746732 -0.0184783 -0.0213839 0.0830097 -0.0217331 
-0.0867772 0.0920356 -0.0169096 -0.02309 0.119893 -0.0226564 -0.127186 0.060531 -0.0122992 
-0.0216115 0.0587626 -0.00725684 -0.132117 0.0731263 -0.0108856 -0.0507085 0.0702417 -0.0111936 
-0.133288 0.135048 -0.0150501 -0.137872 0.0595559 -0.000148183 -0.0857991 0.0601273 -0.00362543 
-0.119727 0.0635064 -0.0051796 -0.0411983 0.0622702 -0.00696071 -0.109358 0.0616282 0.0147967 
-0.0314167 0.05646 0.0141274 -0.121043 0.0718969 0.0107818 -0.0792659 0.125564 0.0160922 
-0.144701 0.0684916 0.0160973 -0.133145 0.066234 0.0173573 -0.0241397 0.0619554 0.0193498 
-0.0199716 0.0762625 0.0159804 -0.130987 0.0833644 0.0197981 -0.115404 0.132758 0.0236283 
-0.116844 0.0555865 0.0235095 -0.119939 0.0788146 0.0290734 -0.0798415 0.081275 0.0228146 
-0.108057 0.0854796 0.0240388 -0.0991655 0.137007 0.0242818 -0.0295719 0.0775672 0.0334623 
-0.0175398 0.0773885 0.0374865 -0.073021 0.120163 0.0343368 -0.0895483 0.0802068 0.038332 
-0.125003 0.0991004 0.0425184 -0.135135 0.131451 0.0398027 -0.137058 0.17019 0.0433996 
-0.0382113 0.0596777 0.0462882 -0.0765957 0.0688396 0.0501506 -0.139002 0.0756418 0.0460312 
-0.110712 0.0709427 0.0528481 -0.0579724 0.0702903 0.046394 -0.0406357 0.08945 0.0501962 
-0.0376236 0.0601154 0.0664251 -0.136375 0.0617327 0.0638016 -0.00794534 0.086281 0.0676456 
-0.0841182 0.0580277 0.0737295 -0.13905 0.0727826 0.0728797 -0.0424415 0.146338 0.0676519 
-0.0754492 0.151852 0.0718019 -0.00858153 0.0583758 0.0794554 -0.123008 0.0633831 0.0802987 
-0.0323244 0.0641207 0.0796947 -0.124894 0.11739 0.0776602 -0.126643 0.0678198 0.0897056 
-0.0116551 0.105404 0.0855658 -0.0192047 0.0779915 0.0908543 -0.113523 0.0943523 0.0917969 
-0.0485028 0.0703776 0.0988471 -0.126388 0.111406 0.0992249 -0.0303593 0.136212 0.0997664 
-0.052409 0.159151 0.102131 -0.0154643 0.0818045 0.111697 -0.0142807 0.0555353 0.119524 
-0.0656436 0.158884 0.117795 -0.0930166 0.147345 0.128589 -0.110192 0.0711074 0.141585 
-0.103096 0.0983233 0.138621 -0.0964719 0.111872 0.140244 -0.0420087 0.189713 0.142801 
-0.113455 0.0590557 0.142579 -0.0820744 0.19696 0.1421 -0.0450919 0.199035 0.144397 
-0.0488299 0.199053 0.140659 -0.04883 0.199036 0.144397 -0.0450918 0.199052 0.140659 
-0.0469143 0.205815 -0.143933 -0.0510871 0.205815 -0.143933 -0.0469142 0.205829 -0.13976 
-0.051087 0.205829 -0.13976 -0.132957 0.239699 -0.137189 -0.121715 0.239699 -0.137189 
-0.132957 0.273969 -0.137189 -0.121715 0.273969 -0.137189 -0.132957 0.239699 -0.125946 
-0.121715 0.239699 -0.125946 -0.132957 0.273969 -0.125946 -0.121715 0.273969 -0.125946 
-0.119773 0.314464 -0.126738 -0.0999494 0.314485 -0.126738 -0.119804 0.384121 -0.126917 
-0.0999809 0.384143 -0.126917 -0.0889481 0.211309 -0.112496 -0.080898 0.21134 -0.112496 
-0.0889927 0.231512 -0.112456 -0.0809426 0.231543 -0.112456 -0.0446109 0.251688 -0.110009 
-0.030774 0.251688 -0.110009 -0.0446109 0.296657 -0.110009 -0.030774 0.296657 -0.110009 
-0.119773 0.314587 -0.106914 -0.0999492 0.314608 -0.106915 -0.119804 0.384243 -0.107094 
-0.0999808 0.384265 -0.107094 -0.0889481 0.211281 -0.104446 -0.080898 0.211312 -0.104446 
-0.0889926 0.231484 -0.104406 -0.0809426 0.231515 -0.104406 -0.0738345 0.230265 -0.0917837 
-0.064188 0.230265 -0.091779 -0.0926633 0.248436 -0.0953275 -0.0798242 0.248436 -0.0953275 
-0.0738346 0.257952 -0.0917826 -0.0641882 0.257952 -0.091778 -0.0446109 0.251688 -0.0961721 
-0.030774 0.251688 -0.0961721 -0.0592665 0.264446 -0.0930511 -0.0428355 0.264446 -0.0930511 
-0.0926633 0.289291 -0.0953275 -0.0798242 0.289291 -0.0953275 -0.0446109 0.296657 -0.0961721 
-0.030774 0.296657 -0.0961721 -0.0592665 0.320116 -0.0930619 -0.0428355 0.320116 -0.0930619 
-0.0926633 0.248436 -0.0824884 -0.0798242 0.248436 -0.0824884 -0.0766069 0.254084 -0.0858616 
-0.0926633 0.289291 -0.0824884 -0.0798242 0.289291 -0.0824884 -0.0898054 0.230752 -0.0776793 
-0.0799595 0.230752 -0.0776793 -0.0738391 0.230264 -0.0821372 -0.0641927 0.230264 -0.0821326 
-0.0579433 0.248466 -0.0825856 -0.068414 0.252307 -0.0788269 -0.0641928 0.257952 -0.0821315 
-0.123339 0.261915 -0.0788715 -0.107506 0.261919 -0.0790595 -0.0898054 0.259262 -0.0776793 
-0.0799595 0.259262 -0.0776793 -0.0537872 0.268067 -0.0797278 -0.0428355 0.264457 -0.0766193 
-0.0634616 0.287356 -0.0796392 -0.0712205 0.290939 -0.0827144 -0.123346 0.315113 -0.0788891 
-0.107513 0.315118 -0.0790771 -0.0592665 0.320121 -0.0766316 -0.0428355 0.320121 -0.0766316 
-0.0330882 0.208668 -0.0733229 -0.0376955 0.208777 -0.073466 -0.037795 0.201864 -0.0735637 
-0.0331877 0.201755 -0.0734206 -0.0898054 0.230752 -0.0678334 -0.0799595 0.230752 -0.0678334 
-0.0711483 0.24855 -0.069314 -0.0579101 0.248577 -0.0693473 -0.0898054 0.259262 -0.0678334 
-0.0799595 0.259262 -0.0678334 -0.0249815 0.265352 -0.0733529 -0.00894957 0.26524 -0.0732601 
-0.0711873 0.29105 -0.0694762 -0.057949 0.291077 -0.0695095 -0.0248158 0.319374 -0.0734755 
-0.0087839 0.319261 -0.0733827 -0.0332327 0.208562 -0.0687156 -0.03784 0.208671 -0.0688587 
-0.0333322 0.201649 -0.0688133 -0.0379395 0.201758 -0.0689564 -0.123151 0.261927 -0.0630392 
-0.107318 0.261931 -0.0632272 -0.0046796 0.259187 -0.0615481 -0.020119 0.310735 -0.0616514 
-0.00468581 0.310739 -0.061581 -0.123158 0.315125 -0.0630568 -0.107325 0.31513 -0.0632447 
-0.0897023 0.252351 -0.0573145 -0.0754663 0.252351 -0.0573145 -0.0187134 0.257836 -0.0588987 
-0.0614775 0.270219 -0.0580292 -0.0444478 0.270219 -0.0580292 -0.0250743 0.265437 -0.057321 
-0.0104418 0.266671 -0.059948 -0.0897023 0.298971 -0.0573246 -0.0754663 0.298971 -0.0573246 
-0.0249086 0.319457 -0.0574436 -0.00887671 0.319344 -0.0573508 -0.0614775 0.328355 -0.0580292 
-0.0444478 0.328355 -0.0580292 -0.0201832 0.259205 -0.0461852 -0.00474979 0.259209 -0.046115 
-0.0201894 0.310758 -0.046218 -0.00475599 0.310762 -0.0461478 -0.10987 0.236897 -0.0382214 
-0.098827 0.236897 -0.0382214 -0.0897023 0.252364 -0.043078 -0.0754663 0.252364 -0.043078 
-0.10987 0.270345 -0.0382214 -0.098827 0.270345 -0.0382214 -0.0614775 0.270219 -0.0409996 
-0.0444478 0.270219 -0.0409996 -0.0897023 0.298973 -0.0430891 -0.0754663 0.298973 -0.0430891 
-0.0614775 0.328355 -0.0409996 -0.0444478 0.328355 -0.0409996 -0.134401 0.251617 -0.0376122 
-0.120764 0.251617 -0.0376122 -0.134401 0.29576 -0.0376117 -0.120764 0.29576 -0.0376117 
-0.0137395 0.219876 -0.0280649 -0.0538559 0.230674 -0.0247838 -0.0438103 0.230674 -0.0247838 
-0.10987 0.236897 -0.0271781 -0.098827 0.236897 -0.0271781 -0.0132314 0.242445 -0.0274964 
-0.134401 0.251614 -0.0239748 -0.120764 0.251614 -0.0239748 -0.0538559 0.260007 -0.0247838 
-0.0438103 0.260007 -0.0247838 -0.0242563 0.262236 -0.0246709 -0.10987 0.270345 -0.0271781 
-0.098827 0.270345 -0.0271781 -0.134401 0.295762 -0.0239744 -0.120764 0.295762 -0.0239744 
-0.0137535 0.219163 -0.0194173 -0.0538559 0.230674 -0.0147383 -0.0438103 0.230674 -0.0147383 
-0.0552252 0.235669 -0.0171168 -0.0441819 0.23577 -0.0170997 -0.0132769 0.241682 -0.018849 
-0.0538559 0.260007 -0.0147383 -0.0438103 0.260007 -0.0147383 -0.00989033 0.262014 -0.0195529 
-0.055318 0.269154 -0.0170998 -0.0442748 0.26918 -0.0171168 -0.025441 0.315278 -0.020757 
-0.00994106 0.315213 -0.0195775 -0.0343445 0.262241 -0.0109988 -0.0160324 0.263534 -0.0110862 
-0.0331012 0.312935 -0.0114511 -0.0148963 0.317346 -0.0148979 -0.0262202 0.260832 -0.00417369 
-0.00982546 0.262051 -0.00383781 -0.0510863 0.200748 -0.139735 -0.0102098 0.31523 -0.00374532 
-0.0469136 0.200734 -0.143908 -0.0510864 0.200734 -0.143908 -0.0469135 0.200749 -0.139735 
[...]
POINT_DATA 1114
FIELD FieldData 8
id 1 1114 int
3781 3801 3730 3805 2484 3894 3745 2648 3927 
3749 3789 3994 3970 3744 3802 2482 3831 2739 
2901 3917 3952 3937 3023 3359 3024 2755 3931 
3785 3823 3296 3981 3738 3852 3908 3773 3180 
3844 3586 3685 3987 3959 3932 3808 3960 3966 
3903 3830 3877 3943 3360 3716 3242 3731 3757 
3135 3961 3727 3896 3244 3951 3243 3918 2962 
3939 3809 3873 3814 3758 2824 3853 3714 3995 
2749 3920 3953 3885 3938 3787 2961 3879 3182 
3919 3297 3786 3815 3925 3746 3971 3975 3720 
3962 2902 3686 3688 3982 3847 3782 3825 2823 
3836 3803 3906 3950 3988 3940 3587 3996 3775 
3955 3909 3728 3747 3911 3854 3631 3788 3954 
3406 3760 3461 3768 3864 3765 3761 3871 3863 
2550 3910 3721 3325 3968 3941 3136 3776 2509 
3997 3754 3977 3963 3632 3729 3875 3956 3874 
3689 3837 4815 4810 4811 4814 4800 4796 4793 
4797 4442 4446 4444 4448 4443 4447 4445 4441 
4018 4022 4020 4024 4690 4694 4692 4696 4226 
4230 4228 4232 4019 4023 4021 4017 4691 4695 
4693 4689 4602 4606 4330 4334 4604 4608 4227 
4231 4042 4046 4332 4336 4229 4225 4044 4048 
4331 4335 4605 4333 4329 4594 4598 4603 4607 
4286 4282 4601 4084 4088 4596 4600 4043 4047 
4288 4284 4086 4090 4045 4041 4792 4788 4786 
4790 4595 4599 4283 4287 4597 4593 4058 4062 
4285 4281 4060 4064 4785 4789 4791 4787 4085 
4089 4142 4140 4144 4087 4091 4194 4198 4138 
4026 4030 4059 4063 4196 4200 4061 4057 4028 
4032 4139 4143 4141 4137 4475 4479 4195 4199 
4477 4481 4027 4031 4197 4193 4029 4025 4258 
4262 4260 4264 4658 4578 4582 4476 4480 4660 
4259 4263 4580 4584 4092 4478 4482 4261 4257 
4659 4579 4583 4483 4487 4661 4581 4577 4096 
4485 4474 4094 4074 4076 4093 4078 4095 4080 
4075 4795 4073 4798 4794 4799 4077 4079 4083 
4484 4488 4081 4486 4473 4362 4366 4364 4368 
4367 4346 4350 4348 4352 4361 4674 4678 4363 
4676 4680 4162 4166 4365 4164 4168 4010 4012 
4634 4638 4675 4679 4347 4314 4351 4636 4318 
4640 4677 4673 4163 4167 4349 4345 4316 4320 
4165 4161 4354 4034 4268 4356 4036 4040 4011 
4730 4734 4635 4639 4736 4732 4498 4315 4637 
4319 4633 4355 4266 4270 4146 4150 4317 4313 
4038 4357 4272 4148 4152 4002 4006 4004 4008 
4013 4735 4731 4729 4733 4499 4267 4271 4115 
4119 4500 4035 4269 4039 4265 4117 4121 4068 
4072 4770 4774 4772 4776 4154 4158 4210 4214 
4147 4151 4066 4070 4501 4212 4216 4156 4160 
4149 4145 4037 4033 4005 4001 4771 4775 4773 
4769 4530 4534 4234 4155 4238 4159 4116 4120 
4123 4127 4067 4532 4071 4536 4389 4236 4240 
4157 4153 4118 4122 4125 4114 4069 4065 4003 
4007 4387 4391 4211 4215 4128 4393 4213 4209 
4450 4454 4586 4590 4388 4392 4531 4535 4418 
4422 4235 4239 4452 4456 4124 4588 4592 4178 
4182 4533 4529 4420 4424 4394 4237 4233 4180 
4184 4126 4113 4451 4455 4587 4591 4419 4423 
4290 4294 4453 4449 4589 4585 4390 4421 4417 
4292 4296 4555 4559 4395 4399 4338 4342 4291 
4295 4557 4561 4179 4183 4397 4386 4340 4344 
4293 4289 4181 4177 4556 4560 4611 4615 4506 
4510 4339 4343 4613 4396 4558 4562 4508 4512 
4341 4337 4726 4722 4738 4742 4740 4744 4728 
4724 4612 4616 4507 4511 4400 4617 4614 4618 
4509 4505 4398 4385 4619 4623 4727 4723 4739 
4743 4621 4741 4737 4721 4725 4610 4050 4052 
4620 4624 4622 4563 4567 4609 4565 4554 4564 
4568 4566 4553 4051 4053 4809 4816 4812 4813 
4082 3899 3849 3161 3811 3440 3905 3818 3876 
3972 3838 3934 3762 3860 3784 3900 3957 3726 
3405 3964 3755 3945 3985 3025 3741 3717 3978 
3858 3666 2927 2591 2989 3922 3856 2481 3778 
3796 3867 3711 2867 3888 3441 3806 3737 3869 
3819 3742 3723 2483 3712 3665 3766 3162 3208 
3850 3881 3797 3812 3770 3840 3691 3891 2748 
3324 3851 3889 3614 2751 3262 3890 3991 3771 
2750 3793 3914 3777 3946 2690 3791 3442 3774 
3732 3870 3779 3764 3385 3263 3999 3668 3915 
3820 3718 3763 3913 3799 3901 3923 2790 3828 
3692 2963 3993 3613 4807 3916 3979 3974 3998 
3667 3924 2928 3947 3750 3810 3739 3790 3835 
3719 3772 3715 3892 3751 3846 3857 3298 3861 
3443 3833 3935 3926 3733 3958 3983 3798 3800 
3843 3326 2753 3872 3992 3936 2868 3725 3967 
3792 3902 3883 3444 3693 3980 3743 3848 3930 
3969 4802 4803 4806 4714 4718 4716 4720 4715 
4719 4717 4713 4626 4630 4515 4519 4628 4632 
4517 4521 4627 4631 4629 4625 4516 4520 4402 
4406 4518 4522 4404 4408 4403 4407 4523 4527 
4525 4514 4405 4401 4698 4702 4700 4704 4699 
4703 4701 4697 4524 4528 4526 4513 4426 4430 
4428 4432 4759 4754 4755 4758 4753 4760 4756 
4757 4427 4431 4429 4425 4490 4494 4370 4374 
4298 4302 4492 4496 4372 4376 4300 4304 4762 
4766 4764 4768 4546 4550 4491 4458 4462 4495 
4371 4375 4202 4206 4299 4303 4548 4552 4493 
4460 4464 4489 4373 4369 4204 4208 4301 4297 
4763 4767 4765 4761 4682 4686 4684 4688 4666 
4670 4683 4687 4685 4681 4547 4551 4459 4463 
4668 4672 4203 4207 4549 4545 4461 4457 4205 
4201 4662 4667 4671 4664 4669 4665 4663 4642 
4646 4657 4644 4648 4643 4647 4645 4641 4650 
4654 4652 4656 4651 4655 4653 4649 4306 4310 
4308 4312 4014 4016 4746 4750 4752 4748 4751 
4747 4745 4749 4378 4382 4358 4540 4307 4311 
4380 4384 4360 4309 4305 4015 4538 4542 4706 
4710 4502 4708 4712 4326 4359 4544 4186 4190 
4353 4324 4328 4188 4192 4009 4539 4543 4707 
4711 4379 4383 4503 4709 4705 4322 4541 4537 
4243 4247 4504 4381 4377 4103 4185 4245 4249 
4101 4105 4323 4327 4187 4191 4497 4099 4325 
4321 4189 4244 4248 4100 4104 4246 4250 4102 
4106 4410 4414 4412 4416 4411 4415 4413 4409 
4434 4438 4436 4440 4435 4439 4255 4130 4134 
4437 4433 4253 4242 4132 4136 4778 4782 4780 
4784 4218 4222 4251 4220 4224 4779 4783 4781 
4777 4252 4256 4170 4174 4131 4135 4254 4241 
4172 4176 4133 4129 4570 4574 4466 4470 4219 
4223 4171 4175 4572 4576 4054 4468 4472 4276 
4221 4217 4173 4169 4056 4467 4471 4274 4278 
4107 4111 4469 4465 4280 4109 4098 4571 4575 
4275 4279 4573 4569 4108 4112 4055 4277 4273 
4049 4110 4097 4801 4808 4804 4805 
type 1 1114 int
2 2 2 2 2 2 2 2 2 
2 2 2 2 2 2 2 2 2 
2 2 2 2 2 2 2 2 2 
2 2 2 2 2 2 2 2 2 
2 2 2 2 2 2 2 2 2 
2 2 2 2 2 2 2 2 2 
2 2 2 2 2 2 2 2 2 
2 2 2 2 2 2 2 2 2 
2 2 2 2 2 2 2 2 2 
2 2 2 2 2 2 2 2 2 
2 2 2 2 2 2 2 2 2 
2 2 2 2 2 2 2 2 2 
2 2 2 2 2 2 2 2 2 
2 2 2 2 2 2 2 2 2 
2 2 2 2 2 2 2 2 2 
2 2 2 2 2 2 2 2 2 
2 2 2 2 2 2 2 2 2 
2 2 2 2 2 2 2 2 2 
2 2 2 2 2 2 2 2 2 
2 2 2 2 2 2 2 2 2 
2 2 2 2 2 2 2 2 2 
2 2 2 2 2 2 2 2 2 
2 2 2 2 2 2 2 2 2 
2 2 2 2 2 2 2 2 2 
2 2 2 2 2 2 2 2 2 
2 2 2 2 2 2 2 2 2 
2 2 2 2 2 2 2 2 2 
2 2 2 2 2 2 2 2 2 
2 2 2 2 2 2 2 2 2 
2 2 2 2 2 2 2 2 2 
2 2 2 2 2 2 2 2 2 
2 2 2 2 2 2 2 2 2 
2 2 2 2 2 2 2 2 2 
2 2 2 2 2 2 2 2 2 
2 2 2 2 2 2 2 2 2 
2 2 2 2 2 2 2 2 2 
2 2 2 2 2 2 2 2 2 
2 2 2 2 2 2 2 2 2 
2 2 2 2 2 2 2 2 2 
2 2 2 2 2 2 2 2 2 
2 2 2 2 2 2 2 2 2 
2 2 2 2 2 2 2 2 2 
2 2 2 2 2 2 2 2 2 
2 2 2 2 2 2 2 2 2 
2 2 2 2 2 2 2 2 2 
2 2 2 2 2 2 2 2 2 
2 2 2 2 2 2 2 2 2 
2 2 2 2 2 2 2 2 2 
2 2 2 2 2 2 2 2 2 
2 2 2 2 2 2 2 2 2 
2 2 2 2 2 2 2 2 2 
2 2 2 2 2 2 2 2 2 
2 2 2 2 2 2 2 2 2 
2 2 2 2 2 2 2 2 2 
2 2 2 2 2 2 2 2 2 
2 2 2 2 2 2 2 2 2 
2 2 2 2 2 2 2 2 2 
2 2 2 2 2 2 2 2 2 
2 2 2 2 2 2 2 2 2 
2 2 2 2 2 2 2 2 2 
2 2 2 2 2 2 2 2 2 
2 2 2 2 2 2 2 2 2 
2 2 2 2 2 2 2 2 2 
2 2 2 2 2 2 2 2 2 
2 2 2 2 2 2 2 2 2 
2 2 2 2 2 2 2 2 2 
2 2 2 2 2 2 2 2 2 
2 2 2 2 2 2 2 2 2 
2 2 2 2 2 2 2 2 2 
2 2 2 2 2 2 2 2 2 
2 2 2 2 2 2 2 2 2 
2 2 2 2 2 2 2 2 2 
2 2 2 2 2 2 2 2 2 
2 2 2 2 2 2 2 2 2 
2 2 2 2 2 2 2 2 2 
2 2 2 2 2 2 2 2 2 
2 2 2 2 2 2 2 2 2 
2 2 2 2 2 2 2 2 2 
2 2 2 2 2 2 2 2 2 
2 2 2 2 2 2 2 2 2 
2 2 2 2 2 2 2 2 2 
2 2 2 2 2 2 2 2 2 
2 2 2 2 2 2 2 2 2 
2 2 2 2 2 2 2 2 2 
2 2 2 2 2 2 2 2 2 
2 2 2 2 2 2 2 2 2 
2 2 2 2 2 2 2 2 2 
2 2 2 2 2 2 2 2 2 
2 2 2 2 2 2 2 2 2 
2 2 2 2 2 2 2 2 2 
2 2 2 2 2 2 2 2 2 
2 2 2 2 2 2 2 2 2 
2 2 2 2 2 2 2 2 2 
2 2 2 2 2 2 2 2 2 
2 2 2 2 2 2 2 2 2 
2 2 2 2 2 2 2 2 2 
2 2 2 2 2 2 2 2 2 
2 2 2 2 2 2 2 2 2 
2 2 2 2 2 2 2 2 2 
2 2 2 2 2 2 2 2 2 
2 2 2 2 2 2 2 2 2 
2 2 2 2 2 2 2 2 2 
2 2 2 2 2 2 2 2 2 
2 2 2 2 2 2 2 2 2 
2 2 2 2 2 2 2 2 2 
2 2 2 2 2 2 2 2 2 
2 2 2 2 2 2 2 2 2 
2 2 2 2 2 2 2 2 2 
2 2 2 2 2 2 2 2 2 
2 2 2 2 2 2 2 2 2 
2 2 2 2 2 2 2 2 2 
2 2 2 2 2 2 2 2 2 
2 2 2 2 2 2 2 2 2 
2 2 2 2 2 2 2 2 2 
2 2 2 2 2 2 2 2 2 
2 2 2 2 2 2 2 2 2 
2 2 2 2 2 2 2 2 2 
2 2 2 2 2 2 2 2 2 
2 2 2 2 2 2 2 2 2 
2 2 2 2 2 2 2 2 2 
2 2 2 2 2 2 2 2 2 
2 2 2 2 2 2 2 2 2 
2 2 2 2 2 2 2 2 2 
2 2 2 2 2 2 2 
i 3 1114 int
0 0 0 0 0 0 0 0 0 
0 0 0 0 0 0 0 0 0 
0 0 0 0 0 0 0 0 0 
0 0 0 0 0 0 0 0 0 
0 0 0 0 0 0 0 0 0 
0 0 0 0 0 0 0 0 0 
0 0 0 0 0 0 0 0 0 
0 0 0 0 0 0 0 0 0 
0 0 0 0 0 0 0 0 0 
0 0 0 0 0 0 0 0 0 
0 0 0 0 0 0 0 0 0 
0 0 0 0 0 0 0 0 0 
0 0 0 0 0 0 0 0 0 
0 0 0 0 0 0 0 0 0 
0 0 0 0 0 0 0 0 0 
0 0 0 0 0 0 0 0 0 
0 0 0 0 0 0 0 0 0 
0 0 0 0 0 0 0 0 0 
0 0 0 0 0 0 0 0 0 
0 0 0 0 0 0 0 0 0 
0 0 0 0 0 0 0 0 0 
0 0 0 0 0 0 0 0 0 
0 0 0 0 0 0 0 0 0 
0 0 0 0 0 0 0 0 0 
0 0 0 0 0 0 0 0 0 
0 0 0 0 0 0 0 0 0 
0 0 0 0 0 0 0 0 0 
0 0 0 0 0 0 0 0 0 
0 0 0 0 0 0 0 0 0 
0 0 0 0 0 0 0 0 0 
0 0 0 0 0 0 0 0 0 
0 0 0 0 0 0 0 0 0 
0 0 0 0 0 0 0 0 0 
0 0 0 0 0 0 0 0 0 
0 0 0 0 0 0 0 0 0 
0 0 0 0 0 0 0 0 0 
0 0 0 0 0 0 0 0 0 
0 0 0 0 0 0 0 0 0 
0 0 0 0 0 0 0 0 0 
0 0 0 0 0 0 0 0 0 
0 0 0 0 0 0 0 0 0 
0 0 0 0 0 0 0 0 0 
0 0 0 0 0 0 0 0 0 
0 0 0 0 0 0 0 0 0 
0 0 0 0 0 0 0 0 0 
0 0 0 0 0 0 0 0 0 
0 0 0 0 0 0 0 0 0 
0 0 0 0 0 0 0 0 0 
0 0 0 0 0 0 0 0 0 
0 0 0 0 0 0 0 0 0 
0 0 0 0 0 0 0 0 0 
0 0 0 0 0 0 0 0 0 
0 0 0 0 0 0 0 0 0 
0 0 0 0 0 0 0 0 0 
0 0 0 0 0 0 0 0 0 
0 0 0 0 0 0 0 0 0 
0 0 0 0 0 0 0 0 0 
0 0 0 0 0 0 0 0 0 
0 0 0 0 0 0 0 0 0 
0 0 0 0 0 0 0 0 0 
0 0 0 0 0 0 0 0 0 
0 0 0 0 0 0 0 0 0 
0 0 0 0 0 0 0 0 0 
0 0 0 0 0 0 0 0 0 
0 0 0 0 0 0 0 0 0 
0 0 0 0 0 0 0 0 0 
0 0 0 0 0 0 0 0 0 
0 0 0 0 0 0 0 0 0 
0 0 0 0 0 0 0 0 0 
0 0 0 0 0 0 0 0 0 
0 0 0 0 0 0 0 0 0 
0 0 0 0 0 0 0 0 0 
0 0 0 0 0 0 0 0 0 
0 0 0 0 0 0 0 0 0 
0 0 0 0 0 0 0 0 0 
0 0 0 0 0 0 0 0 0 
0 0 0 0 0 0 0 0 0 
0 0 0 0 0 0 0 0 0 
0 0 0 0 0 0 0 0 0 
0 0 0 0 0 0 0 0 0 
0 0 0 0 0 0 0 0 0 
0 0 0 0 0 0 0 0 0 
0 0 0 0 0 0 0 0 0 
0 0 0 0 0 0 0 0 0 
0 0 0 0 0 0 0 0 0 
0 0 0 0 0 0 0 0 0 
0 0 0 0 0 0 0 0 0 
0 0 0 0 0 0 0 0 0 
0 0 0 0 0 0 0 0 0 
0 0 0 0 0 0 0 0 0 
0 0 0 0 0 0 0 0 0 
0 0 0 0 0 0 0 0 0 
0 0 0 0 0 0 0 0 0 
0 0 0 0 0 0 0 0 0 
0 0 0 0 0 0 0 0 0 
0 0 0 0 0 0 0 0 0 
0 0 0 0 0 0 0 0 0 
0 0 0 0 0 0 0 0 0 
0 0 0 0 0 0 0 0 0 
0 0 0 0 0 0 0 0 0 
0 0 0 0 0 0 0 0 0 
0 0 0 0 0 0 0 0 0 
0 0 0 0 0 0 0 0 0 
0 0 0 0 0 0 0 0 0 
0 0 0 0 0 0 0 0 0 
0 0 0 0 0 0 0 0 0 
0 0 0 0 0 0 0 0 0 
0 0 0 0 0 0 0 0 0 
0 0 0 0 0 0 0 0 0 
0 0 0 0 0 0 0 0 0 
0 0 0 0 0 0 0 0 0 
0 0 0 0 0 0 0 0 0 
0 0 0 0 0 0 0 0 0 
0 0 0 0 0 0 0 0 0 
0 0 0 0 0 0 0 0 0 
0 0 0 0 0 0 0 0 0 
0 0 0 0 0 0 0 0 0 
0 0 0 0 0 0 0 0 0 
0 0 0 0 0 0 0 0 0 
0 0 0 0 0 0 0 0 0 
0 0 0 0 0 0 0 0 0 
0 0 0 0 0 0 0 0 0 
0 0 0 0 0 0 0 0 0 
0 0 0 0 0 0 0 0 0 
0 0 0 0 0 0 0 0 0 
0 0 0 0 0 0 0 0 0 
0 0 0 0 0 0 0 0 0 
0 0 0 0 0 0 0 0 0 
0 0 0 0 0 0 0 0 0 
0 0 0 0 0 0 0 0 0 
0 0 0 0 0 0 0 0 0 
0 0 0 0 0 0 0 0 0 
0 0 0 0 0 0 0 0 0 
0 0 0 0 0 0 0 0 0 
0 0 0 0 0 0 0 0 0 
0 0 0 0 0 0 0 0 0 
0 0 0 0 0 0 0 0 0 
0 0 0 0 0 0 0 0 0 
0 0 0 0 0 0 0 0 0 
0 0 0 0 0 0 0 0 0 
0 0 0 0 0 0 0 0 0 
0 0 0 0 0 0 0 0 0 
0 0 0 0 0 0 0 0 0 
0 0 0 0 0 0 0 0 0 
0 0 0 0 0 0 0 0 0 
0 0 0 0 0 0 0 0 0 
0 0 0 0 0 0 0 0 0 
0 0 0 0 0 0 0 0 0 
0 0 0 0 0 0 0 0 0 
0 0 0 0 0 0 0 0 0 
0 0 0 0 0 0 0 0 0 
0 0 0 0 0 0 0 0 0 
0 0 0 0 0 0 0 0 0 
0 0 0 0 0 0 0 0 0 
0 0 0 0 0 0 0 0 0 
0 0 0 0 0 0 0 0 0 
0 0 0 0 0 0 0 0 0 
0 0 0 0 0 0 0 0 0 
0 0 0 0 0 0 0 0 0 
0 0 0 0 0 0 0 0 0 
0 0 0 0 0 0 0 0 0 
0 0 0 0 0 0 0 0 0 
0 0 0 0 0 0 0 0 0 
0 0 0 0 0 0 0 0 0 
0 0 0 0 0 0 0 0 0 
0 0 0 0 0 0 0 0 0 
0 0 0 0 0 0 0 0 0 
0 0 0 0 0 0 0 0 0 
0 0 0 0 0 0 0 0 0 
0 0 0 0 0 0 0 0 0 
0 0 0 0 0 0 0 0 0 
0 0 0 0 0 0 0 0 0 
0 0 0 0 0 0 0 0 0 
0 0 0 0 0 0 0 0 0 
0 0 0 0 0 0 0 0 0 
0 0 0 0 0 0 0 0 0 
0 0 0 0 0 0 0 0 0 
0 0 0 0 0 0 0 0 0 
0 0 0 0 0 0 0 0 0 
0 0 0 0 0 0 0 0 0 
0 0 0 0 0 0 0 0 0 
0 0 0 0 0 0 0 0 0 
0 0 0 0 0 0 0 0 0 
0 0 0 0 0 0 0 0 0 
0 0 0 0 0 0 0 0 0 
0 0 0 0 0 0 0 0 0 
0 0 0 0 0 0 0 0 0 
0 0 0 0 0 0 0 0 0 
0 0 0 0 0 0 0 0 0 
0 0 0 0 0 0 0 0 0 
0 0 0 0 0 0 0 0 0 
0 0 0 0 0 0 0 0 0 
0 0 0 0 0 0 0 0 0 
0 0 0 0 0 0 0 0 0 
0 0 0 0 0 0 0 0 0 
0 0 0 0 0 0 0 0 0 
0 0 0 0 0 0 0 0 0 
0 0 0 0 0 0 0 0 0 
0 0 0 0 0 0 0 0 0 
0 0 0 0 0 0 0 0 0 
0 0 0 0 0 0 0 0 0 
0 0 0 0 0 0 0 0 0 
0 0 0 0 0 0 0 0 0 
0 0 0 0 0 0 0 0 0 
0 0 0 0 0 0 0 0 0 
0 0 0 0 0 0 0 0 0 
0 0 0 0 0 0 0 0 0 
0 0 0 0 0 0 0 0 0 
0 0 0 0 0 0 0 0 0 
0 0 0 0 0 0 0 0 0 
0 0 0 0 0 0 0 0 0 
0 0 0 0 0 0 0 0 0 
0 0 0 0 0 0 0 0 0 
0 0 0 0 0 0 0 0 0 
0 0 0 0 0 0 0 0 0 
0 0 0 0 0 0 0 0 0 
0 0 0 0 0 0 0 0 0 
0 0 0 0 0 0 0 0 0 
0 0 0 0 0 0 0 0 0 
0 0 0 0 0 0 0 0 0 
0 0 0 0 0 0 0 0 0 
0 0 0 0 0 0 0 0 0 
0 0 0 0 0 0 0 0 0 
0 0 0 0 0 0 0 0 0 
0 0 0 0 0 0 0 0 0 
0 0 0 0 0 0 0 0 0 
0 0 0 0 0 0 0 0 0 
0 0 0 0 0 0 0 0 0 
0 0 0 0 0 0 0 0 0 
0 0 0 0 0 0 0 0 0 
0 0 0 0 0 0 0 0 0 
0 0 0 0 0 0 0 0 0 
0 0 0 0 0 0 0 0 0 
0 0 0 0 0 0 0 0 0 
0 0 0 0 0 0 0 0 0 
0 0 0 0 0 0 0 0 0 
0 0 0 0 0 0 0 0 0 
0 0 0 0 0 0 0 0 0 
0 0 0 0 0 0 0 0 0 
0 0 0 0 0 0 0 0 0 
0 0 0 0 0 0 0 0 0 
0 0 0 0 0 0 0 0 0 
0 0 0 0 0 0 0 0 0 
0 0 0 0 0 0 0 0 0 
0 0 0 0 0 0 0 0 0 
0 0 0 0 0 0 0 0 0 
0 0 0 0 0 0 0 0 0 
0 0 0 0 0 0 0 0 0 
0 0 0 0 0 0 0 0 0 
0 0 0 0 0 0 0 0 0 
0 0 0 0 0 0 0 0 0 
0 0 0 0 0 0 0 0 0 
0 0 0 0 0 0 0 0 0 
0 0 0 0 0 0 0 0 0 
0 0 0 0 0 0 0 0 0 
0 0 0 0 0 0 0 0 0 
0 0 0 0 0 0 0 0 0 
0 0 0 0 0 0 0 0 0 
0 0 0 0 0 0 0 0 0 
0 0 0 0 0 0 0 0 0 
0 0 0 0 0 0 0 0 0 
0 0 0 0 0 0 0 0 0 
0 0 0 0 0 0 0 0 0 
0 0 0 0 0 0 0 0 0 
0 0 0 0 0 0 0 0 0 
0 0 0 0 0 0 0 0 0 
0 0 0 0 0 0 0 0 0 
0 0 0 0 0 0 0 0 0 
0 0 0 0 0 0 0 0 0 
0 0 0 0 0 0 0 0 0 
0 0 0 0 0 0 0 0 0 
0 0 0 0 0 0 0 0 0 
0 0 0 0 0 0 0 0 0 
0 0 0 0 0 0 0 0 0 
0 0 0 0 0 0 0 0 0 
0 0 0 0 0 0 0 0 0 
0 0 0 0 0 0 0 0 0 
0 0 0 0 0 0 0 0 0 
0 0 0 0 0 0 0 0 0 
0 0 0 0 0 0 0 0 0 
0 0 0 0 0 0 0 0 0 
0 0 0 0 0 0 0 0 0 
0 0 0 0 0 0 0 0 0 
0 0 0 0 0 0 0 0 0 
0 0 0 0 0 0 0 0 0 
0 0 0 0 0 0 0 0 0 
0 0 0 0 0 0 0 0 0 
0 0 0 0 0 0 0 0 0 
0 0 0 0 0 0 0 0 0 
0 0 0 0 0 0 0 0 0 
0 0 0 0 0 0 0 0 0 
0 0 0 0 0 0 0 0 0 
0 0 0 0 0 0 0 0 0 
0 0 0 0 0 0 0 0 0 
0 0 0 0 0 0 0 0 0 
0 0 0 0 0 0 0 0 0 
0 0 0 0 0 0 0 0 0 
0 0 0 0 0 0 0 0 0 
0 0 0 0 0 0 0 0 0 
0 0 0 0 0 0 0 0 0 
0 0 0 0 0 0 0 0 0 
0 0 0 0 0 0 0 0 0 
0 0 0 0 0 0 0 0 0 
0 0 0 0 0 0 0 0 0 
0 0 0 0 0 0 0 0 0 
0 0 0 0 0 0 0 0 0 
0 0 0 0 0 0 0 0 0 
0 0 0 0 0 0 0 0 0 
0 0 0 0 0 0 0 0 0 
0 0 0 0 0 0 0 0 0 
0 0 0 0 0 0 0 0 0 
0 0 0 0 0 0 0 0 0 
0 0 0 0 0 0 0 0 0 
0 0 0 0 0 0 0 0 0 
0 0 0 0 0 0 0 0 0 
0 0 0 0 0 0 0 0 0 
0 0 0 0 0 0 0 0 0 
0 0 0 0 0 0 0 0 0 
0 0 0 0 0 0 0 0 0 
0 0 0 0 0 0 0 0 0 
0 0 0 0 0 0 0 0 0 
0 0 0 0 0 0 0 0 0 
0 0 0 0 0 0 0 0 0 
0 0 0 0 0 0 0 0 0 
0 0 0 0 0 0 0 0 0 
0 0 0 0 0 0 0 0 0 
0 0 0 0 0 0 0 0 0 
0 0 0 0 0 0 0 0 0 
0 0 0 0 0 0 0 0 0 
0 0 0 0 0 0 0 0 0 
0 0 0 0 0 0 0 0 0 
0 0 0 0 0 0 0 0 0 
0 0 0 0 0 0 0 0 0 
0 0 0 0 0 0 0 0 0 
0 0 0 0 0 0 0 0 0 
0 0 0 0 0 0 0 0 0 
0 0 0 0 0 0 0 0 0 
0 0 0 0 0 0 0 0 0 
0 0 0 0 0 0 0 0 0 
0 0 0 0 0 0 0 0 0 
0 0 0 0 0 0 0 0 0 
0 0 0 0 0 0 0 0 0 
0 0 0 0 0 0 0 0 0 
0 0 0 0 0 0 0 0 0 
0 0 0 0 0 0 0 0 0 
0 0 0 0 0 0 0 0 0 
0 0 0 0 0 0 0 0 0 
0 0 0 0 0 0 0 0 0 
0 0 0 0 0 0 0 0 0 
0 0 0 0 0 0 0 0 0 
0 0 0 0 0 0 0 0 0 
0 0 0 0 0 0 0 0 0 
0 0 0 0 0 0 0 0 0 
0 0 0 0 0 0 0 0 0 
0 0 0 0 0 0 0 0 0 
0 0 0 0 0 0 0 0 0 
0 0 0 0 0 0 0 0 0 
0 0 0 0 0 0 0 0 0 
0 0 0 0 0 0 0 0 0 
0 0 0 0 0 0 0 0 0 
0 0 0 0 0 0 0 0 0 
0 0 0 0 0 0 0 0 0 
0 0 0 0 0 0 0 0 0 
0 0 0 0 0 0 0 0 0 
0 0 0 0 0 0 0 0 0 
0 0 0 0 0 0 0 0 0 
0 0 0 0 0 0 0 0 0 
0 0 0 0 0 0 0 0 0 
0 0 0 0 0 0 0 0 0 
0 0 0 0 0 0 0 0 0 
0 0 0 0 0 0 0 0 0 
0 0 0 
v 3 1114 double
0.0080156891962 -0.0015029605931 0.004447886628 0.010048934566 -0.00070430313784 0.0034683114765 -0.029080006669 0.04353332093 0.035337047209 
-0.060142010577 -0.019583477627 0.016349618198 -0.14265671729 0.14287988695 -0.12975060637 0.0046274359853 0.008066801115 -0.0032981339191 
-0.0056303209371 0.0085283445581 0.016039859049 -0.027173646627 0.011902077028 0.021408443641 -0.01040054753 0.0058004044742 0.04555054737 
-0.19048707261 0.037453699347 -0.044591951551 -0.084222972431 0.081829535961 -0.0015657430505 -0.015970077835 0.15166809512 0.0078683031147 
-0.13317801248 0.16221021249 0.0070055395523 0.0084999301845 0.1323890659 0.0081926522313 -0.040956546694 0.26237529859 -0.077021290032 
-0.019593090008 0.057115403233 0.099738465183 0.014928890544 0.04441030584 -0.041816267398 0.0086390268809 0.038845535794 -0.0015567670795 
0.019798951085 0.040401127349 0.0076420378047 -0.078830096885 0.05744859893 0.00019912973901 -0.073359751146 0.048740936439 0.033533506534 
0.00042695319134 0.13846042764 0.029105660503 -0.13444462905 -0.096310921272 -0.048121224652 -0.097613623005 0.14261836488 -0.069878233524 
0.012445841211 0.010247161759 0.022377678425 -0.015825932323 -0.0093599622889 0.054880867859 -0.055110835015 0.016838623604 0.044337729087 
-0.021953360345 0.025884201396 0.04599242959 0.029483446629 0.02126726561 0.019328405917 0.012718550083 0.067616469755 0.01425317236 
0.096087284017 0.12261288527 -0.004294039915 -0.22088889813 -0.095344829998 -0.22122638595 -0.024108631974 0.052866387327 -0.0092589620461 
-0.067244853967 0.04522047833 -0.011281584556 -0.046543241901 0.073906791384 0.057776194531 -0.005644904192 0.11634111591 0.004857108426 
-0.023837693753 0.013424326694 0.030482934101 -0.12700203971 0.048571700113 0.064957662293 0.017418324533 0.057616216922 -0.030352324845 
-0.031250205073 0.21919385107 0.082559184695 -0.00066328633309 0.27334262606 0.093316999735 -0.0032792434209 0.15987574977 -0.11366743156 
-0.013011560337 0.21057775716 -0.067361238852 0.049970442685 -0.065324642116 0.045880628903 -0.1632132347 0.016458060305 -0.098071338305 
0.035121297983 0.12847363527 0.096812815135 -0.02568388976 0.17898130461 0.043235618101 -0.084078667498 0.04976864582 -0.029746205785 
0.010421709988 0.032597662155 0.089304931032 -0.1093329276 0.013073293453 -0.054392005946 0.084560273476 0.0049494460269 0.023097140815 
8.7304082862e-05 0.05658216547 0.0490846904 -0.10514529648 0.01736526256 0.032910920883 0.17906924697 0.04465336239 0.12954131523 
0.011388376557 0.041364487349 -0.11565082641 0.095677381331 0.0044200649861 -0.086041273012 -0.023683525094 0.038479039595 0.077669425022 
0.042602169189 0.089323789222 -0.065956124659 -0.011140416409 0.097767829241 -0.12921837017 0.086954209449 0.2526704874 -0.16366621469 
0.0073616794846 0.22860097262 0.0056379145434 0.015727314557 0.021455075493 -0.0024677751594 -0.0039167831326 0.051254836739 -0.001557137884 
-0.016476201133 0.099454444818 -0.084306564822 0.088817694295 0.1124998154 -0.053149249242 -0.041178332009 0.14957725344 0.14796284926 
0.12805066387 0.097112908791 0.070525714734 0.21273066105 0.083784470045 0.0040210919325 0.092836600924 0.11632370629 -0.033720182364 
0.032153006952 0.017443458787 0.013840565836 -0.12138748745 0.023556564993 -0.062933400745 0.11675560386 0.0055103898253 0.016518092401 
0.065426130544 0.13385490915 0.035482408426 0.028538407798 0.025056636625 -0.064268107381 -0.15104217532 0.21350433729 -0.08847513098 
-0.037631192519 -0.036205899104 -0.0086861403241 0.031590655792 0.043572963739 -0.02529784089 0.066069911894 0.030486271706 0.011613924384 
0.0720265258 0.092481050782 0.10567728676 -0.033229108723 0.13146619811 -0.072439225811 -0.044097505797 -0.017331996616 -0.013690871854 
0.13889610943 -0.022972110717 0.059703086428 0.0027558020571 0.066480200587 0.020948937278 0.068650783752 0.018026213225 0.060475464125 
0.0094198569489 0.15103026516 -0.022541178981 -0.0027343479842 0.020591615742 0.016982238916 -0.02456028625 0.011359228832 -0.0113720337 
-0.075355759169 0.021676425543 0.0073510566327 0.027032685635 0.021794619309 -0.024559164227 -0.047772226234 0.0132061549 0.03151757883 
0.0096478304792 -0.017145350774 -0.037507409938 -0.010215913331 0.035447076697 0.029717211007 -0.082935369571 0.12454513688 0.22031739751 
-0.0096628145522 0.033629140474 0.017212347142 0.0050733256563 0.016862138436 0.042681092749 0.041771423834 0.04111609172 -0.032239226302 
0.049403257311 0.043097090476 -0.013412633032 -0.0019492195281 0.06894765178 0.027024499287 0.048239276178 0.099225294711 0.24497616456 
0.058714015235 0.0017270508604 -0.0052240249124 -0.0039913111495 0.045910097796 0.029473773607 -0.19451755495 0.039668183639 -0.064885900376 