# vtk DataFile Version 5.1
Generated by LIGGGHTS
ASCII
DATASET POLYDATA
POINTS 400 float
-0.109485 0.0589268 -0.143849 -0.0617829 0.0565691 -0.143246 -0.108598 0.0715011 -0.143355 
-0.0555475 0.0917239 -0.144287 -0.0502596 0.110671 -0.14567 -0.0502834 0.119816 -0.144462 
-0.0229599 0.122286 -0.14416 -0.101362 0.132729 -0.146783 -0.0230791 0.131715 -0.144057 
-0.101574 0.141789 -0.147159 -0.0684745 0.143549 -0.00407499 -0.0564694 0.0667823 -0.135897 
-0.0135413 0.0679709 -0.13765 -0.144451 0.0689015 -0.139473 -0.0474436 0.0819625 -0.140173 
-0.144666 0.0797782 -0.141133 -0.0459329 0.0954645 -0.137902 -0.0481979 0.106074 -0.137484 
-0.101629 0.141161 -0.138532 -0.109526 0.0553979 -0.130475 -0.0436381 0.0707073 -0.124618 
-0.060841 0.0771641 -0.130677 -0.142394 0.0840605 -0.131655 -0.127336 0.112678 -0.131567 
-0.0560645 0.110646 -0.131757 -0.0561874 0.120993 -0.132249 -0.0186076 0.1314 -0.131626 
-0.143903 0.0649853 -0.126206 -0.128436 0.0656124 -0.125988 -0.107192 0.0672073 -0.122802 
-0.123386 0.0834073 -0.122105 -0.108326 0.0770094 -0.125631 -0.0582307 0.0902571 -0.122001 
-0.137541 0.136442 -0.120644 -0.0559481 0.0833287 -0.00669849 -0.0555591 0.0722966 -0.00661789 
-0.14394 0.0626796 -0.115457 -0.106132 0.0554019 -0.118479 -0.0793062 0.0584224 -0.11316 
-0.0451453 0.0619924 -0.114383 -0.106584 0.0639832 -0.113021 -0.0796337 0.0728832 -0.112884 
-0.0315024 0.0955113 -0.114633 -0.142638 0.106927 -0.11453 -0.0261435 0.0682679 -0.00257651 
-0.0687344 0.133865 -0.00431976 -0.140846 0.071406 -0.105571 -0.0276902 0.0646296 -0.110746 
-0.0806013 0.122655 -0.00268147 -0.0886931 0.122915 -0.00150339 -0.0684745 0.143549 -0.0136913 
-0.0162615 0.0683138 -0.0109255 -0.105649 0.0566392 -0.096133 -0.0376925 0.0547133 -0.103091 
-0.00970756 0.0634342 -0.10087 -0.00996413 0.0769992 -0.101132 -0.0549298 0.077264 -0.0931564 
-0.0799201 0.131613 -0.0101296 -0.0987791 0.0819492 -0.0138632 -0.0700961 0.0580941 -0.0843294 
-0.0561712 0.0602908 -0.0861819 -0.0862438 0.0824713 -0.0889079 -0.0689425 0.134557 -0.0874709 
-0.0488331 0.110867 -0.019761 -0.0811445 0.114435 -0.0187109 -0.0652888 0.0680049 -0.0794727 
-0.051051 0.0728582 -0.0821487 -0.0424967 0.0943536 -0.00115547 -0.102151 0.0565045 -0.0706238 
-0.0183655 0.0580909 -0.0747674 -0.115324 0.0692173 -0.0710381 -0.102485 0.0675837 -0.0725926 
-0.042456 0.0962149 -0.0732834 -0.0118694 0.103968 -0.0688276 -0.0848825 0.126885 -0.0727564 
-0.0910449 0.113729 -0.0185196 -0.0925887 0.0740288 -0.0186636 -0.115569 0.0638222 -0.0606845 
-0.0622966 0.0671524 -0.0664726 -0.0468937 0.0732938 -0.0667482 -0.0968118 0.120422 -0.0671137 
-0.0521855 0.0943536 -0.00115547 -0.0945998 0.0601548 -0.0190671 -0.0286902 0.0907226 -0.0293131 
-0.0244917 0.0651412 -0.0597148 -0.113414 0.0731366 -0.0590652 -0.0825843 0.0591048 -0.0476014 
-0.0120907 0.066873 -0.0519338 -0.135531 0.062037 -0.0464906 -0.0529626 0.0735135 -0.0495144 
-0.142139 0.0965727 -0.0467589 -0.0321897 0.0711969 -0.0406702 -0.034697 0.113775 -0.0423185 
-0.0712411 0.0640427 -0.0345796 -0.127583 0.0636491 -0.0307995 -0.070063 0.0809993 -0.0343591 
-0.104349 0.105639 -0.0326997 -9.4795e-05 0.057467 0.00592992 -0.000915802 0.0699243 0.00510891 
-0.0977433 0.105836 0.000889928 -0.0977763 0.115981 0.00127719 -0.0748132 0.122717 0.00457859 
-0.0762875 0.131831 0.00318026 -0.144031 0.0596374 0.013852 -0.106321 0.0587233 0.00824534 
-0.0861789 0.0550626 0.013487 -0.0247326 0.0627266 0.0148419 -0.087714 0.0650614 0.011971 
-0.0748374 0.0564612 0.0109508 -0.106775 0.0725174 0.00746231 -0.075105 0.0703828 0.0106833 
-0.0361137 0.0736328 0.0139261 -0.0334957 0.0855729 0.0143696 -0.142532 0.10989 0.0120594 
-0.143393 0.119099 0.0115845 -0.110096 0.115248 0.00827313 -0.110207 0.125272 0.00800912 
-0.0750734 0.130649 0.0114676 -0.079087 0.14093 0.0139143 -0.0969587 0.0683579 0.0175424 
-0.0223167 0.0723315 0.0163797 -0.0688691 0.0719511 0.0206569 -0.100166 0.0777183 0.0170429 
-0.0691356 0.0832441 0.0203905 -0.0999098 0.0883701 0.0167107 -0.00985644 0.10357 0.0153254 
-0.00675805 0.119666 0.0201591 -0.137759 0.13839 0.0175844 -0.0112057 0.0579215 0.0285684 
-0.0616311 0.0623878 0.0208536 -0.016404 0.0672129 0.0233973 -0.11213 0.0622939 0.0252713 
-0.0865099 0.0775907 0.0242911 -0.145078 0.0909216 0.024856 -0.114637 0.0853395 0.0237269 
-0.114928 0.0953897 0.0234364 -0.145457 0.102318 0.0242633 -0.137495 0.128289 0.0268044 
-0.136159 0.0558334 0.0351359 -0.0567797 0.0586075 0.0320864 -0.102218 0.0740353 0.036196 
-0.0568742 0.11308 0.0321826 -0.0424074 0.140853 0.0369435 -0.0660782 0.0560014 0.0377727 
-0.0525181 0.0562821 0.0408587 -0.0893254 0.0676844 0.0443705 -0.0531889 0.0672874 0.0388843 
-0.0471919 0.0915753 0.0411342 -0.128779 0.125104 0.0411117 -0.123199 0.0556775 0.0462218 
-0.0996821 0.0668917 0.0496807 -0.0583268 0.0687582 0.0519229 -0.0897471 0.0891622 0.0467258 
-0.0401407 0.0745806 0.0590509 -0.116583 0.0973604 0.0530976 -0.069135 0.125397 0.0553639 
-0.106768 0.0647583 0.062131 -0.0515694 0.0734255 0.0621647 -0.095388 0.0997567 0.0674947 
-0.0953882 0.113589 0.0666115 -0.130113 0.0630609 0.0738086 -0.139797 0.0664589 0.0708037 
-0.0517667 0.0696918 0.0737314 -0.0884639 0.0624543 0.0731277 -0.0624371 0.102923 0.0723856 
-0.10901 0.0679934 0.0805629 -0.0849956 0.0892806 0.0814699 -0.0993125 0.111966 0.0790065 
-0.0260893 0.0604858 0.0832843 -0.141346 0.0546524 0.0840536 -0.120295 0.0670514 0.0836254 
-0.0419074 0.110606 0.0875055 -0.0169162 0.08585 0.0973861 -0.111623 0.098397 0.0910982 
-0.0659031 0.104579 0.0925747 -0.0285397 0.0626353 0.101595 -0.0812118 0.0551356 0.0993143 
-0.140335 0.0752616 0.104454 -0.0287633 0.0813704 0.101372 -0.12104 0.109245 0.0999867 
-0.0579011 0.125929 0.110854 -0.0419197 0.0975597 0.114557 -0.0290824 0.0938236 0.11278 
-0.109689 0.118334 0.113554 -0.0596515 0.14533 0.113647 -0.0347598 0.133663 0.146874 
-0.131965 0.106804 0.121152 -0.0637626 0.127832 0.121199 -0.0503518 0.135897 0.123009 
-0.065721 0.10305 0.145552 -0.0659864 0.0924026 0.145172 -0.0487719 0.0586756 0.131302 
-0.0484668 0.070864 0.134849 -0.117307 0.110203 0.130397 -0.122843 0.116216 0.130509 
-0.0388171 0.127535 0.138262 -0.0344196 0.133167 0.139876 -0.0716501 0.0667414 0.144089 
-0.0489208 0.0619222 0.143914 -0.0719629 0.0559861 0.143794 0.029114 0.081638 -0.143141 
0.0462435 0.0931804 -0.143169 0.0282367 0.0931839 -0.14349 0.138094 0.105591 -0.145551 
0.138866 0.114844 -0.145931 0.0216942 0.125653 -0.146499 0.10632 0.124595 -0.145472 
0.135361 0.122357 -0.143516 0.0213767 0.137389 -0.144602 0.0448425 0.0617426 -0.138772 
0.1325 0.0557294 -0.13562 0.132775 0.0657676 -0.135775 0.0448448 0.0714139 -0.142213 
0.0465843 0.0825439 -0.141995 0.138381 0.0999341 -0.138392 0.0129142 0.109616 -0.138578 
0.013187 0.119101 -0.139158 0.0095695 0.132444 -0.139477 0.0176661 0.131236 -0.138921 
0.0354012 0.0618387 -0.129545 0.0350465 0.0742327 -0.1299 0.0524692 0.109561 -0.131584 
0.0313606 0.117516 -0.128151 0.00968341 0.123232 -0.130208 0.012271 0.0549706 -0.120438 
0.0118859 0.0652976 -0.120827 0.0488436 0.0971827 -0.125577 0.0229555 0.10721 -0.125963 
0.119823 0.130619 -0.122472 0.0647449 0.0559283 -0.119016 0.05382 0.0618485 -0.116614 
0.095787 0.127925 -0.113898 0.100064 0.122354 -0.118487 0.0424336 0.0563257 -0.111831 
0.0356383 0.0595671 -0.104483 0.0282199 0.0661385 -0.111751 0.0278667 0.078319 -0.112104 
0.118035 0.0897928 -0.105127 0.0378303 0.106455 -0.106862 0.000525797 0.0567475 -0.0996199 
0.0177277 0.0588467 -0.10578 0.0546295 0.0588871 -0.103089 0.0534353 0.0730326 -0.103931 
0.041472 0.0931703 -0.0975335 0.0513255 0.103233 -0.097504 0.090253 0.137718 -0.097926 
0.0393811 0.0556911 -0.0915458 0.0920602 0.058153 -0.0972446 0.00462185 0.0667086 -0.0926014 
0.0583085 0.0644019 -0.0952771 0.0720701 0.0677107 -0.0905313 0.0570003 0.0751831 -0.0935435 
0.0206894 0.0836334 -0.0929473 0.0792602 0.0782761 -0.0930148 0.136294 0.100804 -0.0937232 
0.0666263 0.124095 -0.0938224 0.0105812 0.0551414 -0.0861608 0.0554525 0.057442 -0.0831152 
0.00563455 0.0638407 -0.0820401 0.0539948 0.0674753 -0.0798812 0.0149392 0.0744768 -0.0858493 
0.0093403 0.090626 -0.0897903 0.0802109 0.0869581 -0.0864494 0.0636479 0.0603955 -0.0753395 
0.0943819 0.0568279 -0.0799099 0.0933105 0.0684403 -0.0814202 0.108372 0.0994969 -0.0758747 
0.110921 0.0648223 -0.0689227 0.0604491 0.0719947 -0.0658168 0.0791684 0.0898334 -0.0729181 
0.0379628 0.146849 -0.0698659 0.146024 0.114997 -0.00638188 0.115999 0.0937466 -0.064954 
0.0143217 0.102256 -0.000856333 0.0553072 0.132617 -0.0152353 0.0658769 0.0769328 -0.0533191 
0.116199 0.0853645 -0.0556883 0.0853605 0.0925782 -0.0564998 0.0133048 0.112631 -0.0580421 
0.0280881 0.106698 -0.0551777 0.0193886 0.0605938 -0.0466841 0.0177589 0.0750279 -0.0450543 
0.0315569 0.0651294 -0.0484639 0.0576836 0.0645762 -0.046974 0.0574239 0.0766028 -0.0472337 
0.0371055 0.115069 -0.0484227 0.0399591 0.0567734 -0.0423887 0.127155 0.0605218 -0.0393938 
0.125546 0.0748819 -0.0376098 0.0841556 0.0917491 -0.0398794 0.0682018 0.117419 -0.0405517 
0.0374772 0.0594851 -0.0313217 0.122535 0.115197 -0.035296 0.132042 0.124605 -0.0258886 
0.0190596 0.140356 -0.0269865 0.146025 0.115793 -0.0154467 0.136774 0.115603 -0.0159967 
0.145741 0.106663 -0.0164239 0.103351 0.0550872 0.00180638 0.103321 0.0690982 0.00425139 
0.0729994 0.0683092 0.0031975 0.0720139 0.0797759 0.00335913 0.0803211 0.0979219 0.00207993 
0.1047 0.0935693 0.00706744 0.0800557 0.10905 0.00126293 0.0535328 0.131139 0.00504377 
0.0532686 0.141108 0.0050329 0.0251558 0.059458 0.0120603 0.0600754 0.0559574 0.0104202 
0.105808 0.0547674 0.0148143 0.0570169 0.0653709 0.00897069 0.0238118 0.0728078 0.0107163 
0.0988388 0.0619287 0.0143603 0.0706359 0.079444 0.0137918 0.104854 0.0828753 0.00787915 
0.0781672 0.0552645 0.0213381 0.077425 0.0655607 0.0202333 0.0662896 0.0658099 0.0147757 
0.0799732 0.0749122 0.0166597 0.10778 0.0723325 0.0186148 0.111407 0.0854403 0.0152609 
0.0866931 0.0553647 0.0287418 0.112091 0.0572519 0.02402 0.144264 0.0563938 0.0239877 
0.0860035 0.0654528 0.0254214 0.116106 0.0648366 0.0308764 0.122583 0.0745922 0.02445 
0.0794468 0.0962545 0.024147 0.0791815 0.107348 0.0245991 0.0255188 0.138967 0.0243032 
0.136934 0.0549604 0.0374446 0.104442 0.0891329 0.0337201 0.1328 0.122706 0.0360458 
0.0913297 0.133951 0.0374558 0.111051 0.134981 0.0367879 0.0912409 0.143329 0.0370226 
0.11462 0.0685891 0.143325 0.0143825 0.0657601 0.143934 0.0806615 0.12078 0.139418 
0.0856084 0.0546685 0.039517 0.131619 0.06358 0.0396959 0.0315408 0.0629778 0.038837 
0.105062 0.0762378 0.0438817 0.020013 0.116294 0.0397193 0.115432 0.118463 0.0385862 
0.0197476 0.125962 0.0396801 0.132582 0.128331 0.0403868 0.133207 0.0694928 0.0487149 
0.0910195 0.113516 0.0509828 0.115698 0.109802 0.0477984 0.0430531 0.103823 0.136284 
0.00493493 0.0739983 0.140005 0.138017 0.0627148 0.13525 0.145013 0.055128 0.137405 
0.0378909 0.0595905 0.0559699 0.00117583 0.0876221 0.0532275 0.0286351 0.111018 0.054763 
0.0928434 0.135649 0.058713 0.0852251 0.14446 0.0569815 0.133384 0.0559298 0.141914 
0.025198 0.0575939 0.0633375 0.0998209 0.0616657 0.0674764 0.0424988 0.0731973 0.0664976 
0.0510811 0.084175 0.0657514 0.000582045 0.0980154 0.0634449 0.0896803 0.120075 0.130416 
0.0571803 0.115303 0.13257 0.0248977 0.0590931 0.0736536 0.0567315 0.0710426 0.0690449 
0.108334 0.0673114 0.0738019 0.135084 0.0578978 0.0713055 0.0176047 0.0655181 0.0804504 
0.00101075 0.0619107 0.0816485 0.00513332 0.0999152 0.0811098 0.12743 0.0603969 0.129564 
0.0859734 0.0576333 0.128823 0.1206 0.0763467 0.086683 0.00533186 0.0900384 0.0828651 
0.087348 0.0872607 0.0898038 0.018991 0.0922772 0.0845631 0.0539093 0.0659572 0.122898 
0.143735 0.0580002 0.120107 0.0323365 0.0643532 0.0916264 0.0550534 0.0612164 0.0889154 
0.0376193 0.0735006 0.0955968 0.00993041 0.0729224 0.0913067 0.0561334 0.139683 0.092473 
0.123469 0.140632 0.0957058 0.0387332 0.060686 0.103355 0.0701722 0.0861416 0.104301 
0.0465584 0.0982663 0.0995099 0.0201414 0.128485 0.102305 0.128207 0.0680344 0.106559 
0.0201352 0.128771 0.112559 0.123328 0.131032 0.105186 0.0436142 0.063893 0.116809 
0.076799 0.0574381 0.117978 0.0608884 0.074116 0.115238 0.057266 0.103238 0.115724 
0.0142666 0.0587693 0.12275 
VERTICES 401 400
OFFSETS vtktypeint64
0 1 2 3 4 5 6 7 8 
9 10 11 12 13 14 15 16 17 
18 19 20 21 22 23 24 25 26 
27 28 29 30 31 32 33 34 35 
36 37 38 39 40 41 42 43 44 
45 46 47 48 49 50 51 52 53 
54 55 56 57 58 59 60 61 62 
63 64 65 66 67 68 69 70 71 
72 73 74 75 76 77 78 79 80 
81 82 83 84 85 86 87 88 89 
90 91 92 93 94 95 96 97 98 
99 100 101 102 103 104 105 106 107 
108 109 110 111 112 113 114 115 116 
117 118 119 120 121 122 123 124 125 
126 127 128 129 130 131 132 133 134 
135 136 137 138 139 140 141 142 143 
144 145 146 147 148 149 150 151 152 
153 154 155 156 157 158 159 160 161 
162 163 164 165 166 167 168 169 170 
171 172 173 174 175 176 177 178 179 
180 181 182 183 184 185 186 187 188 
189 190 191 192 193 194 195 196 197 
198 199 200 201 202 203 204 205 206 
207 208 209 210 211 212 213 214 215 
216 217 218 219 220 221 222 223 224 
225 226 227 228 229 230 231 232 233 
234 235 236 237 238 239 240 241 242 
243 244 245 246 247 248 249 250 251 
252 253 254 255 256 257 258 259 260 
261 262 263 264 265 266 267 268 269 
270 271 272 273 274 275 276 277 278 
279 280 281 282 283 284 285 286 287 
288 289 290 291 292 293 294 295 296 
297 298 299 300 301 302 303 304 305 
306 307 308 309 310 311 312 313 314 
315 316 317 318 319 320 321 322 323 
324 325 326 327 328 329 330 331 332 
333 334 335 336 337 338 339 340 341 
342 343 344 345 346 347 348 349 350 
351 352 353 354 355 356 357 358 359 
360 361 362 363 364 365 366 367 368 
369 370 371 372 373 374 375 376 377 
378 379 380 381 382 383 384 385 386 
387 388 389 390 391 392 393 394 395 
396 397 398 399 400 
CONNECTIVITY vtktypeint64
0 1 2 3 4 5 6 7 8 
9 10 11 12 13 14 15 16 17 
18 19 20 21 22 23 24 25 26 
27 28 29 30 31 32 33 34 35 
36 37 38 39 40 41 42 43 44 
45 46 47 48 49 50 51 52 53 
54 55 56 57 58 59 60 61 62 
63 64 65 66 67 68 69 70 71 
72 73 74 75 76 77 78 79 80 
81 82 83 84 85 86 87 88 89 
90 91 92 93 94 95 96 97 98 
99 100 101 102 103 104 105 106 107 
108 109 110 111 112 113 114 115 116 
117 118 119 120 121 122 123 124 125 
126 127 128 129 130 131 132 133 134 
135 136 137 138 139 140 141 142 143 
144 145 146 147 148 149 150 151 152 
153 154 155 156 157 158 159 160 161 
162 163 164 165 166 167 168 169 170 
171 172 173 174 175 176 177 178 179 
180 181 182 183 184 185 186 187 188 
189 190 191 192 193 194 195 196 197 
198 199 200 201 202 203 204 205 206 
207 208 209 210 211 212 213 214 215 
216 217 218 219 220 221 222 223 224 
225 226 227 228 229 230 231 232 233 
234 235 236 237 238 239 240 241 242 
243 244 245 246 247 248 249 250 251 
252 253 254 255 256 257 258 259 260 
261 262 263 264 265 266 267 268 269 
270 271 272 273 274 275 276 277 278 
279 280 281 282 283 284 285 286 287 
288 289 290 291 292 293 294 295 296 
297 298 299 300 301 302 303 304 305 
306 307 308 309 310 311 312 313 314 
315 316 317 318 319 320 321 322 323 
324 325 326 327 328 329 330 331 332 
333 334 335 336 337 338 339 340 341 
342 343 344 345 346 347 348 349 350 
351 352 353 354 355 356 357 358 359 
360 361 362 363 364 365 366 367 368 
369 370 371 372 373 374 375 376 377 
378 379 380 381 382 383 384 385 386 
387 388 389 390 391 392 393 394 395 
396 397 398 399 
POINT_DATA 400
FIELD FieldData 8
id 1 400 int
2755 2648 3023 3744 3884 3917 3937 3970 3959 
3994 3995 2901 3773 3781 3726 3801 3844 3873 
3987 3745 3296 3586 3823 3907 3903 3931 3960 
3024 2739 3757 3814 3785 3830 3981 3808 3787 
3297 3685 3180 3242 3727 3403 3852 3894 3134 
3975 2823 3025 3938 3939 3996 3133 2961 3734 
3766 3793 3802 3961 3815 3359 3686 3824 3976 
3895 3918 3774 2756 3845 3716 3711 3026 3740 
3858 3877 3949 3919 3360 3243 3767 2824 3932 
3846 3135 3835 3404 3786 3687 3181 3758 2825 
3853 2962 3908 3405 3759 3809 3878 3263 3519 
3885 3909 3940 3971 3688 2902 3631 2963 3720 
3746 3182 3775 3782 3810 3896 3925 3920 3950 
3962 3988 3768 3244 3788 3803 3816 3831 3879 
3926 3982 3298 3747 3587 3760 3794 3836 3825 
3854 3863 3955 3721 3461 3783 3910 3989 3735 
3136 2826 3406 3847 3941 3728 3769 3761 3027 
3795 3859 3951 3299 2757 3864 3911 3407 3245 
2964 3754 3874 3776 3837 3904 3588 3736 3183 
3898 3817 3865 3880 2509 3748 3804 2649 3886 
3963 3866 3855 3933 3997 3977 3887 3956 3984 
3875 3848 3690 3722 3897 3921 3954 3983 3729 
3632 3689 3818 3838 3849 3876 3905 3952 3942 
3934 3978 2927 3717 3741 3161 3811 3867 3899 
3927 3972 3964 3762 3789 3900 3922 3943 3730 
3749 3860 3888 3965 3440 3665 3957 3944 2867 
3737 3770 3796 3839 3889 3691 3208 2748 2989 
3856 3881 3985 2591 3712 3731 3755 3777 3784 
3819 3812 3868 3945 2481 3162 2749 3385 3805 
3840 3826 3262 3441 3666 3869 3386 3518 3832 
3999 3912 3850 3882 3973 3813 3827 3841 3915 
3891 2482 2750 3763 3778 3797 3929 3613 2483 
2751 3842 3928 3713 3923 3946 3990 3913 3914 
3890 3324 3614 3779 3806 3870 3851 3901 3966 
3991 2790 3714 3692 3738 3084 3764 3790 3820 
3667 3723 3750 3771 3732 3828 3718 2690 3442 
3742 2928 3791 3861 3892 3986 3715 3833 3947 
3974 3979 3998 3163 2990 3948 3739 3751 3756 
3807 3924 3930 3953 3958 3780 3916 3902 3893 
2754 3733 3444 3668 3834 3906 3980 4000 3693 
3719 3520 3798 3821 3862 3936 3935 3743 2868 
3209 3752 3325 3765 3871 3724 3725 3799 3843 
3829 3857 2753 3326 3443 2484 2752 3792 3993 
3992 2550 3822 3872 3969 3772 3967 3968 3521 
3753 3800 3883 3694 
type 1 400 int
2 2 2 2 2 2 2 2 2 
2 2 2 2 2 2 2 2 2 
2 2 2 2 2 2 2 2 2 
2 2 2 2 2 2 2 2 2 
2 2 2 2 2 2 2 2 2 
2 2 2 2 2 2 2 2 2 
2 2 2 2 2 2 2 2 2 
2 2 2 2 2 2 2 2 2 
2 2 2 2 2 2 2 2 2 
2 2 2 2 2 2 2 2 2 
2 2 2 2 2 2 2 2 2 
2 2 2 2 2 2 2 2 2 
2 2 2 2 2 2 2 2 2 
2 2 2 2 2 2 2 2 2 
2 2 2 2 2 2 2 2 2 
2 2 2 2 2 2 2 2 2 
2 2 2 2 2 2 2 2 2 
2 2 2 2 2 2 2 2 2 
2 2 2 2 2 2 2 2 2 
2 2 2 2 2 2 2 2 2 
2 2 2 2 2 2 2 2 2 
2 2 2 2 2 2 2 2 2 
2 2 2 2 2 2 2 2 2 
2 2 2 2 2 2 2 2 2 
2 2 2 2 2 2 2 2 2 
2 2 2 2 2 2 2 2 2 
2 2 2 2 2 2 2 2 2 
2 2 2 2 2 2 2 2 2 
2 2 2 2 2 2 2 2 2 
2 2 2 2 2 2 2 2 2 
2 2 2 2 2 2 2 2 2 
2 2 2 2 2 2 2 2 2 
2 2 2 2 2 2 2 2 2 
2 2 2 2 2 2 2 2 2 
2 2 2 2 2 2 2 2 2 
2 2 2 2 2 2 2 2 2 
2 2 2 2 2 2 2 2 2 
2 2 2 2 2 2 2 2 2 
2 2 2 2 2 2 2 2 2 
2 2 2 2 2 2 2 2 2 
2 2 2 2 2 2 2 2 2 
2 2 2 2 2 2 2 2 2 
2 2 2 2 2 2 2 2 2 
2 2 2 2 2 2 2 2 2 
2 2 2 2 
i 3 400 int
0 0 0 0 0 0 0 0 0 
0 0 0 0 0 0 0 0 0 
0 0 0 0 0 0 0 0 0 
0 0 0 0 0 0 0 0 0 
0 0 0 0 0 0 0 0 0 
0 0 0 0 0 0 0 0 0 
0 0 0 0 0 0 0 0 0 
0 0 0 0 0 0 0 0 0 
0 0 0 0 0 0 0 0 0 
0 0 0 0 0 0 0 0 0 
0 0 0 0 0 0 0 0 0 
0 0 0 0 0 0 0 0 0 
0 0 0 0 0 0 0 0 0 
0 0 0 0 0 0 0 0 0 
0 0 0 0 0 0 0 0 0 
0 0 0 0 0 0 0 0 0 
0 0 0 0 0 0 0 0 0 
0 0 0 0 0 0 0 0 0 
0 0 0 0 0 0 0 0 0 
0 0 0 0 0 0 0 0 0 
0 0 0 0 0 0 0 0 0 
0 0 0 0 0 0 0 0 0 
0 0 0 0 0 0 0 0 0 
0 0 0 0 0 0 0 0 0 
0 0 0 0 0 0 0 0 0 
0 0 0 0 0 0 0 0 0 
0 0 0 0 0 0 0 0 0 
0 0 0 0 0 0 0 0 0 
0 0 0 0 0 0 0 0 0 
0 0 0 0 0 0 0 0 0 
0 0 0 0 0 0 0 0 0 
0 0 0 0 0 0 0 0 0 
0 0 0 0 0 0 0 0 0 
0 0 0 0 0 0 0 0 0 
0 0 0 0 0 0 0 0 0 
0 0 0 0 0 0 0 0 0 
0 0 0 0 0 0 0 0 0 
0 0 0 0 0 0 0 0 0 
0 0 0 0 0 0 0 0 0 
0 0 0 0 0 0 0 0 0 
0 0 0 0 0 0 0 0 0 
0 0 0 0 0 0 0 0 0 
0 0 0 0 0 0 0 0 0 
0 0 0 0 0 0 0 0 0 
0 0 0 0 0 0 0 0 0 
0 0 0 0 0 0 0 0 0 
0 0 0 0 0 0 0 0 0 
0 0 0 0 0 0 0 0 0 
0 0 0 0 0 0 0 0 0 
0 0 0 0 0 0 0 0 0 
0 0 0 0 0 0 0 0 0 
0 0 0 0 0 0 0 0 0 
0 0 0 0 0 0 0 0 0 
0 0 0 0 0 0 0 0 0 
0 0 0 0 0 0 0 0 0 
0 0 0 0 0 0 0 0 0 
0 0 0 0 0 0 0 0 0 
0 0 0 0 0 0 0 0 0 
0 0 0 0 0 0 0 0 0 
0 0 0 0 0 0 0 0 0 
0 0 0 0 0 0 0 0 0 
0 0 0 0 0 0 0 0 0 
0 0 0 0 0 0 0 0 0 
0 0 0 0 0 0 0 0 0 
0 0 0 0 0 0 0 0 0 
0 0 0 0 0 0 0 0 0 
0 0 0 0 0 0 0 0 0 
0 0 0 0 0 0 0 0 0 
0 0 0 0 0 0 0 0 0 
0 0 0 0 0 0 0 0 0 
0 0 0 0 0 0 0 0 0 
0 0 0 0 0 0 0 0 0 
0 0 0 0 0 0 0 0 0 
0 0 0 0 0 0 0 0 0 
0 0 0 0 0 0 0 0 0 
0 0 0 0 0 0 0 0 0 
0 0 0 0 0 0 0 0 0 
0 0 0 0 0 0 0 0 0 
0 0 0 0 0 0 0 0 0 
0 0 0 0 0 0 0 0 0 
0 0 0 0 0 0 0 0 0 
0 0 0 0 0 0 0 0 0 
0 0 0 0 0 0 0 0 0 
0 0 0 0 0 0 0 0 0 
0 0 0 0 0 0 0 0 0 
0 0 0 0 0 0 0 0 0 
0 0 0 0 0 0 0 0 0 
0 0 0 0 0 0 0 0 0 
0 0 0 0 0 0 0 0 0 
0 0 0 0 0 0 0 0 0 
0 0 0 0 0 0 0 0 0 
0 0 0 0 0 0 0 0 0 
0 0 0 0 0 0 0 0 0 
0 0 0 0 0 0 0 0 0 
0 0 0 0 0 0 0 0 0 
0 0 0 0 0 0 0 0 0 
0 0 0 0 0 0 0 0 0 
0 0 0 0 0 0 0 0 0 
0 0 0 0 0 0 0 0 0 
0 0 0 0 0 0 0 0 0 
0 0 0 0 0 0 0 0 0 
0 0 0 0 0 0 0 0 0 
0 0 0 0 0 0 0 0 0 
0 0 0 0 0 0 0 0 0 
0 0 0 0 0 0 0 0 0 
0 0 0 0 0 0 0 0 0 
0 0 0 0 0 0 0 0 0 
0 0 0 0 0 0 0 0 0 
0 0 0 0 0 0 0 0 0 
0 0 0 0 0 0 0 0 0 
0 0 0 0 0 0 0 0 0 
0 0 0 0 0 0 0 0 0 
0 0 0 0 0 0 0 0 0 
0 0 0 0 0 0 0 0 0 
0 0 0 0 0 0 0 0 0 
0 0 0 0 0 0 0 0 0 
0 0 0 0 0 0 0 0 0 
0 0 0 0 0 0 0 0 0 
0 0 0 0 0 0 0 0 0 
0 0 0 0 0 0 0 0 0 
0 0 0 0 0 0 0 0 0 
0 0 0 0 0 0 0 0 0 
0 0 0 0 0 0 0 0 0 
0 0 0 0 0 0 0 0 0 
0 0 0 0 0 0 0 0 0 
0 0 0 0 0 0 0 0 0 
0 0 0 0 0 0 0 0 0 
0 0 0 0 0 0 0 0 0 
0 0 0 0 0 0 0 0 0 
0 0 0 0 0 0 0 0 0 
0 0 0 0 0 0 0 0 0 
0 0 0 0 0 0 0 0 0 
0 0 0 0 0 0 0 0 0 
0 0 0 
v 3 400 double
0.0017108691617 0.092913335528 -0.00014199777 -0.034028346872 0.042358511706 -0.012530444206 0.020631748548 0.17880320196 0.015836613842 
-0.16402815595 -0.50635246861 -0.064028015248 -0.01085233179 -0.82897663213 0.039972707858 -0.013734895208 -0.48692684303 0.10265739592 
-0.0054454375635 -1.0033467067 -0.0048384122679 0 -0.9431984985 0.039815856261 -0.0032109286111 -0.99667905255 0.0098342594501 
0.0070040311873 -0.93843539725 0.04841753327 0 -0.9721303155 -2.6243361572e-14 0.078451339605 0.055402699999 0.13277700494 
0 -1 0 0.032259505716 -0.98394000378 0 0.14280541556 -0.20645144633 0.13336121751 
0.033526373215 -0.96374171783 -0.041926356577 0.23555211413 -0.79693394236 0.18524769626 0.0866935993 -0.61502995563 0.23322715679 
-0.0069674211245 -0.9721303155 0.0069674211246 -0.0081852093254 -1.0485384844 -0.020696062147 0.28657211866 -0.064328736796 0.36137415439 
-0.08014495912 -0.15385862268 0.25197155132 0.021424824287 -0.98533475905 0.056037158468 0 -1.0278696845 0 
-0.0015146679419 -1.0255311648 0.0038100942606 0.0031083959005 -0.99335849204 -0.0030514078837 -0.0017459094468 -1.0111189021 -0.0080386425114 
-0.010631040253 0.37170168321 -0.0013029562874 0.026207727457 0.3398021886 1.1004860945e-19 -0.0057198868342 -0.76919853276 -0.11683716727 
0.00093621115373 -0.99815222434 -0.0035875512483 -0.0039741113503 -0.90801176401 -0.01108458372 0 -0.9721303155 0 
0.00017700445032 -1.0107416072 -0.012519541024 -0.00093621115373 -0.97397809116 0.0035875512483 0.0069674211246 -1 0.0069674211245 
-0.010638472443 0.37415425496 0.002111636917 0.0015402077674 0.17068246248 -0.012610988397 -0.005644904192 0.11634111591 0.004857108426 
-0.040836913231 0.31219693249 -0.0079816855815 -0.014901053929 -0.088385435829 0.28332991228 -0.0096575554909 0.27005267014 0.0080604148417 
0 -1 0 0.0015146679419 -1.0302082042 -0.0038100942606 0.0017389604782 0.39882328398 -0.0017389604782 
0.0003178502612 -1.0164391779 0.0014461503232 0 0.40003533198 0 0.18580942352 0.21889229546 0.035964813705 
-0.085389976809 -1.0030335723 -0.11313051348 0 -0.99303257888 1.2596328241e-14 0 -0.9721303155 2.6243361572e-14 
-0.0030995011966 0.4005287818 -0.0015598553611 0.011295963689 -0.1469347912 0.39858229342 0 0.38684590902 0 
0 -1.0278696845 -8.088568831e-19 0.00013521316886 -0.97333577444 6.2467170716e-05 -0.00013521316886 -0.99879454107 -6.2467170716e-05 
0.0050184951068 -0.98608817937 0.010670165464 0 -1.0278696845 -1.6177137662e-18 -0.067747631962 0.16151500945 0.0077535217747 
0.35773231607 -0.14994287195 -0.050988743325 0 -1.0278696845 0 -0.00029414138551 -1.0100510944 0.0058730871698 
0 -0.9721303155 0 0.003859025224 -0.98573924459 0.0030514078836 -0.014266228178 -0.99697646908 -0.055036481294 
0 0.39895779965 -0.0048950405667 0.055655422775 -0.9721303155 -2.3470112193e-14 -0.0040698707369 0.28466486532 -0.023757018061 
0 0.39389108135 0.0050239420839 -1.4485258125e-05 0.39873630553 -3.634419112e-05 -0.013439671783 0.51232874696 -0.080587636658 
0.0047128072015 -1.0236043526 -0.0059892814046 0 -1 0 0 -1 0 
-0.0051518002829 -1.0074981052 0.0089462542549 0.05989488559 0.32219351449 0.010519329201 -0.15487831248 -0.53259160687 -0.12227769633 
0.012387808155 -1.0044849323 0.054116754487 0 0.40995780949 4.9284862975e-06 -0.0016698730382 -0.99767684974 0.0041568365541 
-0.055655422775 -0.9721303155 2.3470516622e-14 0.02717005516 0.18182771144 0.004990411836 0 -1 8.088568831e-19 
0.013750131286 0.41310435568 -0.010249234026 0.14880238213 -0.077970153924 0.10668136531 0 0.39374558319 -0.0047274651976 
-0.0006249839803 0.39654364795 -0.0035443033661 0 -1.0139348422 8.088568831e-19 0 0.41049660782 0 
-0.0047128072015 -0.97639564745 0.0059892814046 0 0.40998550795 0 -0.00014574780339 -0.9878576239 -0.013103090809 
0 0.41066394422 0 0 -1.0139348422 -5.4436068233e-16 0 -1 -2.1208227475e-15 
0 -1 0 -0.0053444608278 0.09390465394 -0.0053444608277 -0.026301618679 0.19420349068 -0.026301618679 
0 -1 -0.013934842249 0.0047648130563 -0.97506450167 4.0329564938e-05 0.090986150552 -1.000384402 0.10391367997 
-0.01317286668 -1.0069206427 -0.011830734102 -0.010378700774 0.39067777922 0.0041577869807 -0.0022819043593 0.094273287817 -0.0045601714405 
0.094507950164 0.092820966848 -0.060168847954 0.050307472457 -0.061266872548 -0.00070941091907 0.10326219069 -0.03708772365 -0.17015220849 
0 -1.0278696845 -1.6177137662e-18 -0.0098478849027 0.19480293708 -0.01835862255 0 -0.9721303155 0 
-0.32236655344 -0.81779022033 -0.050295707581 -0.091472869173 -0.54760550676 -0.01458051581 0.009752368289 -0.99462304415 0 
-0.0069674211245 -0.99303257888 -0.0069674211245 -0.0047648130563 -1.0249354983 -4.0329564938e-05 0 -1 0 
0.0053175394928 -1.0190042628 0.0056724749665 0 -0.9721303155 8.088568831e-19 -0.14268035843 -0.90556523453 0.12864080578 
0.30086047346 0.040799752865 0.093699275656 0 -1.0278696845 0 -0.21613327948 -0.6094526219 0.029509483539 
0 -1 0 -0.00096113546162 -0.93436023892 -0.0012922737166 0 -1.0278696845 0 
0.0069674211245 -0.97909773663 0.0069674211245 0 -0.9721303155 0 -0.00039089860094 0.11455369985 -0.0003921878874 
-0.15577666483 -0.47657652865 -0.35875873257 -0.14717511936 0.11455315296 -0.14641300526 -0.0026321643055 -1.0065464208 -0.0023473455078 
0.0052454421168 -0.97592621287 0.00031780998075 0.039814523191 -0.98195608254 0 0.0014095598066 -1.0487781845 0.0014095598066 
-0.0018042270737 -0.93756425655 -0.0018042270738 0.039814523198 -0.94016424033 -0.0066430906082 0 -1.0278696845 -5.7046249395e-14 
0.0011427222985 0.38876322421 0.00064935020248 0.032177223197 -0.15534050735 0.058925707106 0.0055925791796 -0.97515233517 0.018930585402 
0 -1.0278696845 0 -0.0022357930233 -0.9708917541 -0.002153005058 0 0.41007381017 0 
0.16775578368 -0.14630462488 0.22134714916 -0.0016610994383 0.29654940525 0.0087496036546 0.053464672713 -0.0031395208882 -0.21811192042 
0 -1 0 0 -0.9721303155 0.013934842249 0.0034428254805 -0.9693563263 0.0022451982701 
-0.0055925791796 -0.99001055921 0.0019716779715 -0.13848294923 -0.52517893496 0.3306956586 -0.0067172086632 0.56567410001 0.037516284279 
0 -1.0278696845 0 0 -1 0 0 -0.9721303155 8.088568831e-19 
0 0.39882697079 0 0 0.39925497113 0 0 -0.99303257888 8.088568831e-19 
0.0052880434447 -1.0004984641 -0.015408349461 0.0023122065005 0.39628274053 0.0023597342796 0.00056348824668 0.40152978625 0.00027402949384 
0 0.39875819248 -0.0097057056303 0.0012604245468 -0.99935144961 0.00080112349006 0 -1 0 
0.0069674211245 -1 -0.0069674211245 0 -1 0 -0.0052880434447 -1.006468957 0.0084409283367 
0 0.38755395842 -0.0050852537353 0 0.17794281897 0 -8.0938774001e-06 0.39894161244 0 
-0.0008064506435 -0.99196076729 0.011645257734 0 -0.9721303155 0 1.3774428291e-14 -1.0069674211 0.020902263374 
0.0069852072671 -0.97518146925 -0.0026621151977 -0.0033082998542 0.13377592098 -0.0033247496929 -0.00056639955472 -1.0305150308 -0.017102624114 
0 -1.0278696845 -8.088568831e-19 -0.0046666478446 0.28784143851 -0.0046798590522 -0.0034475634525 -0.97061866319 0.015296391299 
0 -1.0139348422 0.013934842249 -0.0067776025484 -1.0107819949 -0.011329690883 0.0067776025484 -1.0310225318 -0.0026051513661 
0 -1 -8.088568831e-19 0.0014610539288 -0.96504033019 -0.0073217767032 0.012352251163 -0.94770865383 -0.034544333108 
-0.0027311931712 -0.99953231016 -0.0033772704618 0.00043407114166 -1.0152295393 -0.01351538144 0.0017521974428 -1.0007942276 0.004261372227 
0 -0.95412891032 -0.039874489157 0 -0.98195869107 -0.039806029636 0.003430585782 0.26858144658 0.036345321829 
0.011418066286 0.44714508742 0.13056772323 0.033507479586 -1.0363898676 -0.00067931275374 -0.041870913108 -0.95452725751 0.00084886846854 
-0.035841472273 -1.0574246358 -0.02113637998 0.0036133843671 -0.97965224933 0.00055892160238 0.01170138735 0.3169036846 0.0080076877137 
0.00012723140704 0.41108127166 -0.017584560188 0.005518295417 0.17429916154 0.0022929424197 0 -1.0278696845 0 
0.01162165908 -0.23342190751 -0.071885248004 -0.01086481015 -0.99088102156 -0.0014829420972 -0.011794068768 -0.90385426409 0.041272443491 
0.0030715519504 -0.79739194348 0.039812309904 0.00445234012 -0.96406113142 0.039814436697 -0.0080737663386 -0.98197133553 -0.011981175661 
-1.3393861127e-14 -0.9721303155 -8.088568831e-19 0.0037069681493 -0.7674911207 0.21656770496 0.0050900547689 0.17845228299 -0.038894057001 
0.0025478505678 0.10512463899 -0.0016146382376 0.017383607347 0.18535627107 -0.010092439058 -0.069013298679 -0.66470336737 -0.064749445582 
0.075225730262 -0.71540129002 0.025337877501 -0.0040519718102 -1.0265604486 0.080352346518 -0.011843448631 -1.0112477606 -7.7035060347e-05 
-0.00031827913085 -1.0008416938 -0.010697984612 -0.0069674211245 -0.9721303155 -0.0069674211245 -0.0024337296701 -1.0078006934 -0.0069898570662 
0.0013977588944 -1.0488447108 0.0013977588944 -0.0017848347046 -0.93762892234 -0.0017848347047 -1.3393861127e-14 -1 3.3310748588e-14 
0.0028057734969 -0.98814175698 -0.0088280046998 -0.0053004557513 -0.99134282185 -0.00082957340757 -0.0094449400684 0.24572180812 -0.0098127479158 
-0.025764411522 0.058778867181 -0.025858162075 1.4399674661e-14 -1.0139348422 0.0069674211245 0.0027316455918 -1.0021725104 0.004995507587 