# vtk DataFile Version 5.1
Generated by LIGGGHTS
ASCII
DATASET POLYDATA
POINTS 1065 float
-0.137244 0.0561009 -0.1441 -0.140569 0.0695379 -0.143579 -0.0136849 0.0727612 -0.143933 
-0.133083 0.125575 -0.142531 -0.143782 0.0602391 -0.135513 -0.118665 0.0580666 -0.138137 
-0.0767515 0.0594773 -0.136509 -0.000362885 0.0637212 -0.139413 -0.0771104 0.0823138 -0.139809 
-0.00136456 0.100294 -0.13783 -0.101665 0.111815 -0.142265 -0.0726259 0.119082 -0.142072 
-0.0491647 0.19115 -0.142176 -0.133006 0.0698038 -0.133211 -0.0423122 0.0723665 -0.12857 
-0.083103 0.0876601 -0.132314 -0.010714 0.09326 -0.130683 -0.023133 0.115816 -0.131688 
-0.000872748 0.158311 -0.13047 -0.0748973 0.181102 -0.133516 -0.11705 0.0591065 -0.119836 
-0.139092 0.0712008 -0.122259 -0.121828 0.125674 -0.121424 -0.139626 0.0578867 -0.114807 
-0.0885072 0.0595548 -0.115752 -0.131841 0.065224 -0.116602 -0.0354244 0.0845308 -0.118058 
-0.143501 0.0882165 -0.116862 -0.0799157 0.102302 -0.118092 -0.0346373 0.075371 -0.110715 
-0.121737 0.088181 -0.109723 -0.0186718 0.0979296 -0.107098 -0.0821851 0.117756 -0.110683 
-0.0240859 0.0598654 -0.103077 -0.127298 0.0654998 -0.104259 -0.112774 0.066375 -0.101229 
-0.0605738 0.0768777 -0.101955 -0.113643 0.148377 -0.101595 -0.0235899 0.184919 -0.10216 
-0.0566767 0.115094 -0.0940091 -0.0679811 0.134638 -0.0900134 -0.0487299 0.0578712 -0.0839546 
-0.0348401 0.0668243 -0.0852327 -0.00581046 0.0757078 -0.0833639 -0.0746372 0.108327 -0.0874851 
-0.0428156 0.114207 -0.0861004 -0.0354764 0.0750767 -0.0757712 -0.117817 0.0602859 -0.0711888 
-0.122589 0.0763226 -0.0725432 -0.042669 0.0936442 -0.0738943 -0.0506443 0.0592254 -0.0627908 
-0.0403851 0.0736309 -0.0645498 -0.114646 0.167651 -0.0600307 -0.0322707 0.194341 -0.0633581 
-0.118201 0.0701491 -0.0558758 -0.114834 0.0819576 -0.0605911 -0.140525 0.102556 -0.054993 
-0.0725096 0.057957 -0.0476462 -0.0312695 0.0562186 -0.0531679 -0.00856306 0.0736882 -0.045716 
-0.0184215 0.113081 -0.0506359 -0.0469152 0.126821 -0.0501387 -0.0249886 0.12396 -0.0488725 
-0.128651 0.166995 -0.0507825 -0.0547839 0.0788818 -0.0426001 -0.0259531 0.0921508 -0.0444393 
-0.0937224 0.104257 -0.0425834 -0.01156 0.0992021 -0.0302481 -0.0197579 0.101293 -0.0367379 
-0.110477 0.0577442 -0.0239872 -0.00136389 0.0654364 -0.0242059 -0.0146367 0.0851625 -0.0260998 
-0.138929 0.107091 -0.028024 -0.0676224 0.0729303 -0.0174664 -0.0240267 0.0817903 -0.0221976 
-0.0896582 0.0883363 -0.0211367 -0.0217608 0.114634 -0.0197589 -0.0547993 0.169432 -0.0207268 
-0.125661 0.0611944 -0.01164 -0.116568 0.0576458 -0.014935 -0.0271673 0.0596815 -0.00964496 
-0.132227 0.0704671 -0.0117235 -0.0534545 0.0695207 -0.0136126 -0.133665 0.129006 -0.0141484 
-0.137763 0.0587322 -0.000827473 -0.0848167 0.0596729 -0.00317055 -0.0422797 0.0613984 -0.00597834 
-0.116712 0.0626394 -0.00547364 -0.108692 0.0761348 -0.00107201 -0.00785895 0.0845342 -0.00469174 
-0.0759485 0.120582 0.00727952 -0.107447 0.0611 0.013536 -0.0338684 0.0564648 0.0143228 
-0.120634 0.070479 0.00959312 -0.117334 0.128789 0.0138293 -0.144315 0.0671465 0.0154088 
-0.133348 0.0655596 0.01565 -0.0219477 0.0745386 0.0165169 -0.130909 0.0806065 0.0187171 
-0.108749 0.0834187 0.022671 -0.119193 0.0555174 0.0237185 -0.0237449 0.0609918 0.0219443 
-0.119779 0.0769782 0.0278945 -0.0720608 0.0796883 0.0254101 -0.0727746 0.115591 0.0289637 
-0.097985 0.130538 0.0231451 -0.0318954 0.0767315 0.0311594 -0.0192648 0.0758442 0.0351569 
-0.0886699 0.0780391 0.0364001 -0.131379 0.12575 0.036484 -0.0400458 0.0592611 0.0436464 
-0.125993 0.0959675 0.0407394 -0.135909 0.160512 0.0434409 -0.10887 0.0695268 0.0491615 
-0.0764632 0.0673601 0.0495698 -0.0596001 0.0686891 0.0457258 -0.138423 0.0743267 0.0461293 
-0.0401471 0.0864171 0.0575408 -0.0343916 0.0612646 0.0677956 -0.135184 0.0619236 0.0616099 
-0.00989293 0.0828849 0.0657428 -0.0847488 0.0577639 0.0699355 -0.138868 0.071715 0.0688516 
-0.0393848 0.139248 0.0686365 -0.0747013 0.143918 0.0704326 -0.00676845 0.0570293 0.0779578 
-0.125421 0.0623767 0.0768813 -0.0299174 0.0628441 0.0766929 -0.123033 0.112299 0.0787568 
-0.0758803 0.198653 0.0762738 -0.128102 0.0662286 0.0862072 -0.114769 0.0930441 0.0877841 
-0.00959348 0.101098 0.0841267 -0.048485 0.0692079 0.0947667 -0.00853745 0.0753837 0.0919947 
-0.126016 0.110298 0.0941285 -0.0302269 0.130861 0.0998993 -0.0537687 0.151452 0.102844 
-0.0195615 0.078393 0.111337 -0.0176586 0.0566485 0.118552 -0.0648967 0.14988 0.117215 
-0.0898987 0.140782 0.129601 -0.11499 0.0706328 0.141395 -0.10045 0.0956927 0.139454 
-0.0941785 0.109309 0.141193 -0.043699 0.178853 0.137784 -0.110334 0.058563 0.142678 
-0.0810491 0.187785 0.144032 -0.0470804 0.191427 0.143114 -0.131843 0.227896 -0.136074 
-0.122829 0.227896 -0.136074 -0.131843 0.252972 -0.136074 -0.122829 0.252972 -0.136074 
-0.131843 0.227896 -0.127061 -0.122829 0.227896 -0.127061 -0.131843 0.252972 -0.127061 
-0.122829 0.252972 -0.127061 -0.118123 0.298578 -0.122412 -0.100529 0.298597 -0.122412 
-0.11815 0.35904 -0.122566 -0.100556 0.359059 -0.122566 -0.0874583 0.204867 -0.111694 
-0.0874583 0.204853 -0.105873 -0.0816379 0.204868 -0.105873 -0.0816379 0.204882 -0.111694 
-0.0874802 0.216352 -0.111674 -0.0874802 0.216338 -0.105853 -0.0816598 0.216353 -0.105853 
-0.0816597 0.216367 -0.111674 -0.0434961 0.240327 -0.108894 -0.0318888 0.240327 -0.108894 
-0.0434961 0.276101 -0.108894 -0.0318888 0.276101 -0.108894 -0.0434961 0.240327 -0.0972869 
-0.0318888 0.240327 -0.0972869 -0.0434961 0.276101 -0.0972869 -0.0318888 0.276101 -0.0972869 
-0.118122 0.298684 -0.104818 -0.100529 0.298702 -0.104818 -0.11815 0.359146 -0.104973 
-0.100556 0.359165 -0.104973 -0.0727165 0.218755 -0.0906719 -0.0652996 0.218755 -0.0906689 
-0.0915486 0.236635 -0.0942127 -0.080939 0.236635 -0.0942127 -0.0727165 0.237247 -0.0906712 
-0.0652997 0.237247 -0.0906683 -0.0581517 0.253086 -0.0917414 -0.0439503 0.253086 -0.0917414 
-0.0915486 0.268295 -0.0942127 -0.080939 0.268295 -0.0942127 -0.0581517 0.299561 -0.0917503 
-0.0439503 0.299561 -0.0917503 -0.0727194 0.218755 -0.083255 -0.0653026 0.218755 -0.0832521 
-0.0915486 0.236635 -0.0836031 -0.080939 0.236635 -0.0836031 -0.073295 0.236432 -0.0840321 
-0.0653026 0.237247 -0.0832514 -0.0915486 0.268295 -0.0836031 -0.080939 0.268295 -0.0836031 
-0.0886907 0.219399 -0.0765646 -0.0810743 0.219399 -0.0765646 -0.0886907 0.238715 -0.0765646 
-0.0810743 0.238715 -0.0765646 -0.0693117 0.237849 -0.079921 -0.0588785 0.237055 -0.0807243 
-0.122207 0.250564 -0.0777741 -0.108604 0.250568 -0.0779277 -0.0545826 0.255447 -0.0795643 
-0.0439503 0.253095 -0.0775394 -0.0699171 0.27034 -0.080823 -0.0624775 0.268008 -0.0788237 
-0.122213 0.294568 -0.0777884 -0.10861 0.294572 -0.0779421 -0.0581517 0.299565 -0.0775495 
-0.0439503 0.299565 -0.0775495 -0.0886907 0.219399 -0.0689482 -0.0810743 0.219399 -0.0689482 
-0.0886907 0.238715 -0.0689482 -0.0810743 0.238715 -0.0689482 -0.0698617 0.23712 -0.06969 
-0.058853 0.23714 -0.0697156 -0.0244101 0.253423 -0.0718308 -0.0106078 0.253331 -0.0717548 
-0.0698915 0.270425 -0.0698144 -0.0588828 0.270445 -0.0698399 -0.0242743 0.298249 -0.0719313 
-0.010472 0.298157 -0.0718553 -0.00577661 0.247924 -0.0603013 -0.122053 0.250574 -0.0641713 
-0.10845 0.250578 -0.064325 -0.0117345 0.254411 -0.0599943 -0.122059 0.294578 -0.0641857 
-0.108456 0.294582 -0.0643393 -0.0189852 0.290278 -0.0603851 -0.00578164 0.290282 -0.060328 
-0.0885875 0.2412 -0.0560117 -0.0765811 0.2412 -0.0560117 -0.0179296 0.24691 -0.0583165 
-0.0244862 0.253492 -0.0580285 -0.0603627 0.258396 -0.0569144 -0.0455626 0.258396 -0.0569144 
-0.0885875 0.278624 -0.0560196 -0.0765811 0.278624 -0.0560196 -0.0243504 0.298318 -0.058129 
-0.0105481 0.298225 -0.0580529 -0.0603627 0.307337 -0.0569144 -0.0455626 0.307337 -0.0569144 
-0.0190373 0.247939 -0.0471547 -0.00583353 0.247942 -0.0470977 -0.0190423 0.290297 -0.0471813 
-0.00583856 0.2903 -0.0471244 -0.0885875 0.24121 -0.0440049 -0.0765811 0.24121 -0.0440049 
-0.0603627 0.258396 -0.0421144 -0.0455626 0.258396 -0.0421144 -0.0885875 0.278626 -0.0440136 
-0.0765811 0.278626 -0.0440136 -0.0603627 0.307337 -0.0421144 -0.0455626 0.307337 -0.0421144 
-0.108755 0.225533 -0.0371066 -0.0999418 0.225533 -0.0371066 -0.133287 0.24001 -0.0364978 
-0.121879 0.24001 -0.0364978 -0.108755 0.249786 -0.0371066 -0.0999418 0.249786 -0.0371066 
-0.133287 0.27496 -0.0364975 -0.121879 0.27496 -0.0364975 -0.00759885 0.210517 -0.0245297 
-0.0527411 0.219762 -0.023669 -0.0449251 0.219762 -0.023669 -0.0073193 0.224356 -0.0242163 
-0.108755 0.225533 -0.0282929 -0.0999418 0.225533 -0.0282929 -0.133287 0.240008 -0.02509 
-0.121879 0.240008 -0.02509 -0.0527411 0.2399 -0.023669 -0.0449251 0.2399 -0.023669 
-0.108755 0.249786 -0.0282929 -0.0999418 0.249786 -0.0282929 -0.133287 0.274961 -0.0250897 
-0.121879 0.274961 -0.0250897 -0.00760687 0.21012 -0.0181111 -0.0527411 0.219762 -0.0158531 
-0.0449251 0.219762 -0.0158531 -0.00734426 0.223934 -0.0177979 -0.0527411 0.2399 -0.0158531 
-0.0449251 0.2399 -0.0158531 -0.0233627 0.250762 -0.0224263 -0.0109103 0.250589 -0.0184025 
-0.0242939 0.294643 -0.0193563 -0.0109518 0.294593 -0.0184226 -0.0533759 0.224732 -0.0127555 
-0.0445622 0.224802 -0.0127438 -0.0534406 0.24901 -0.0127438 -0.044627 0.249029 -0.0127555 
-0.0330314 0.250661 -0.00991164 -0.0168055 0.251798 -0.0107043 -0.0320563 0.292624 -0.0102664 
-0.0159217 0.296286 -0.0136896 -0.025591 0.249538 -0.00443931 -0.0108684 0.250618 -0.0048917 
-0.0275033 0.290855 -0.00108033 -0.0111714 0.294606 -0.00481999 -0.0320596 0.250713 0.00333967 
-0.0196902 0.250493 0.00674543 -0.0320563 0.292627 0.00333636 -0.0185167 0.292604 0.00351439 
-0.0533759 0.224757 0.0104446 -0.0445623 0.224776 0.0104328 -0.0534407 0.248985 0.0104328 
-0.044627 0.249055 0.0104446 -0.0923428 0.229563 0.0193633 -0.0825314 0.22957 0.0192998 
-0.0923529 0.257931 0.0193637 -0.0825415 0.257937 0.0193003 -0.108131 0.230984 0.028118 
-0.0981204 0.230987 0.0281227 -0.0922793 0.229562 0.0291747 -0.0824679 0.229569 0.0291112 
[...]
POINT_DATA 1065
FIELD FieldData 8
id 1 1065 int
3781 3801 3730 3970 3894 3745 2648 3927 3749 
3789 3994 3744 3884 2739 2901 3917 3952 3937 
3726 3802 2755 3023 3359 3024 3931 3785 3296 
3823 3981 3852 3908 3773 3180 3844 3586 3738 
3685 3987 3959 3808 3830 3960 3966 3943 3932 
3903 3877 3360 3716 3242 3731 3757 3243 3519 
3727 3135 3896 3918 3961 2962 3809 3873 3244 
3951 3814 3758 3939 2749 2824 3853 3714 3995 
3920 3938 3787 2961 3879 3953 3182 3885 3919 
3297 3786 3815 3925 3746 3975 3971 3831 2482 
3686 3720 3962 2902 2823 3688 3982 3782 3825 
3950 3836 3847 3803 3906 3996 3988 3940 3587 
3775 3909 3747 3955 3728 3631 3911 3788 3854 
3954 3406 3760 3461 3768 3864 3765 3761 3871 
3863 2550 3910 3904 3721 3941 3325 3136 3968 
3776 2509 3997 3754 3977 3963 3632 3729 3875 
3956 3874 3689 3837 3690 4442 4446 4444 4448 
4443 4447 4445 4441 4018 4022 4020 4024 4690 
4691 4695 4694 4692 4693 4689 4696 4226 4230 
4228 4232 4227 4231 4229 4225 4019 4023 4021 
4017 4602 4606 4330 4334 4604 4608 4042 4046 
4332 4336 4044 4048 4603 4607 4331 4335 4605 
4601 4333 4329 4594 4598 4596 4600 4282 4286 
4084 4088 4043 4047 4284 4288 4086 4090 4045 
4041 4595 4599 4597 4593 4283 4287 4058 4062 
4285 4281 4060 4064 4142 4085 4089 4063 4087 
4091 4140 4144 4194 4198 4138 4059 4026 4030 
4196 4200 4061 4057 4028 4032 4139 4143 4141 
4137 4195 4199 4027 4031 4197 4193 4029 4025 
4475 4479 4258 4262 4477 4481 4260 4264 4658 
4578 4582 4660 4476 4480 4259 4263 4580 4584 
4478 4482 4261 4257 4659 4579 4583 4661 4581 
4577 4092 4096 4094 4074 4483 4487 4485 4474 
4076 4093 4078 4095 4080 4075 4082 4073 4077 
4081 4079 4083 4484 4488 4486 4473 4362 4366 
4364 4368 4346 4350 4363 4367 4365 4361 4348 
4352 4674 4678 4676 4680 4162 4166 4164 4168 
4010 4012 4675 4679 4677 4673 4347 4351 4314 
4318 4163 4167 4349 4345 4316 4320 4165 4161 
4635 4634 4638 4639 4636 4637 4633 4640 4354 
4356 4011 4013 4736 4732 4730 4734 4498 4315 
4319 4266 4270 4355 4146 4150 4034 4038 4268 
4357 4317 4313 4272 4148 4152 4036 4040 4002 
4006 4004 4008 4729 4733 4735 4731 4499 4267 
4271 4500 4115 4119 4035 4269 4039 4265 4117 
4121 4068 4072 4154 4158 4147 4151 4066 4070 
4501 4156 4160 4149 4145 4037 4033 4005 4001 
4530 4534 4234 4238 4210 4214 4155 4159 4532 
4536 4116 4120 4123 4127 4067 4071 4236 4240 
4212 4216 4157 4153 4118 4122 4125 4114 4069 
4065 4003 4007 4387 4391 4235 4239 4211 4215 
4389 4128 4393 4237 4233 4213 4209 4450 4454 
4586 4590 4531 4535 4388 4392 4418 4422 4588 
4592 4452 4456 4178 4182 4533 4529 4124 4390 
4394 4420 4424 4180 4184 4126 4113 4451 4455 
4587 4591 4419 4423 4290 4294 4589 4585 4453 
4449 4421 4417 4292 4296 4555 4559 4395 4399 
4291 4295 4338 4342 4557 4561 4179 4183 4397 
4386 4340 4344 4293 4289 4181 4177 4611 4615 
4506 4510 4556 4560 4613 4396 4339 4343 4508 
4512 4558 4562 4341 4337 4612 4616 4507 4511 
4614 4617 4618 4400 4509 4505 4398 4385 4623 
4726 4727 4722 4723 4737 4744 4740 4741 4743 
4742 4739 4738 4721 4728 4724 4725 4610 4563 
4565 4554 4050 4052 4619 4620 4624 4622 4621 
4609 4564 4567 4566 4553 4568 4051 4053 3899 
3849 3161 3811 3905 3818 3440 3876 3972 3838 
3934 3762 3860 3784 3900 3957 3964 3755 3945 
3025 3405 3741 3717 3978 2927 3985 3858 2591 
2989 3922 3856 2481 3778 3796 3666 3867 3711 
3888 2867 3819 3441 3737 3869 3806 3805 3712 
4759 3665 3723 2483 3766 3162 3812 3208 3881 
3797 3691 2748 3889 3770 3850 3840 3891 3324 
3851 3614 2751 3262 3973 3777 3890 3771 2750 
3793 3914 3946 3991 3774 2690 3791 3442 3999 
3870 3915 3779 3764 3385 3732 3763 3263 3742 
4754 4755 4758 3820 2484 3668 3913 3901 3718 
3923 2790 3828 3613 3799 3692 2963 3993 3084 
3916 3979 3974 3998 3667 3924 3810 2928 3790 
3947 3750 3739 3835 3715 3719 4751 3892 3772 
3751 3846 3298 3857 3861 3443 3833 3958 3926 
3733 3935 3983 3843 3798 3800 3326 3872 3992 
3780 3936 2868 2753 3725 3967 3792 3980 3930 
3444 3693 3902 3883 3848 3969 3743 4746 4747 
4750 4714 4718 4716 4720 4715 4719 4717 4713 
4626 4630 4628 4632 4627 4631 4515 4519 4629 
4625 4517 4521 4516 4520 4402 4406 4518 4522 
4404 4408 4403 4407 4405 4401 4698 4702 4700 
4704 4523 4527 4525 4514 4699 4703 4701 4697 
4524 4528 4526 4513 4426 4430 4428 4432 4427 
4431 4429 4425 4490 4494 4370 4374 4492 4496 
4372 4376 4298 4302 4300 4304 4491 4495 4458 
4462 4371 4375 4202 4206 4299 4303 4493 4460 
4489 4464 4373 4369 4301 4297 4204 4208 4683 
4682 4687 4686 4685 4684 4681 4688 4546 4550 
4548 4552 4547 4551 4459 4463 4203 4207 4549 
4545 4461 4457 4205 4201 4662 4671 4666 4667 
4670 4664 4665 4672 4668 4669 4663 4657 4642 
4643 4647 4646 4644 4645 4641 4648 4753 4760 
4756 4757 4654 4650 4656 4652 4655 4651 4649 
4653 4306 4310 4308 4312 4014 4016 4538 4542 
4358 4540 4544 4307 4311 4360 4309 4305 4015 
4009 4539 4543 4711 4706 4707 4710 4378 4382 
4705 4712 4708 4709 4502 4359 4541 4322 4537 
4326 4380 4384 4353 4324 4328 4192 4379 4383 
4503 4323 4327 4243 4247 4504 4381 4377 4186 
4190 4103 4325 4321 4185 4188 4245 4249 4101 
4105 4497 4187 4191 4099 4189 4244 4248 4100 
4104 4246 4250 4102 4106 4410 4414 4412 4416 
4411 4415 4413 4409 4434 4438 4436 4440 4435 
4439 4255 4433 4130 4134 4437 4253 4242 4132 
4136 4218 4222 4251 4220 4224 4252 4256 4170 
4174 4131 4135 4254 4241 4172 4176 4133 4129 
4466 4470 4219 4223 4171 4175 4054 4468 4472 
4221 4217 4173 4169 4056 4570 4574 4274 4278 
4467 4471 4572 4576 4469 4465 4107 4111 4276 
4280 4109 4098 4571 4575 4275 4279 4573 4569 
4108 4112 4055 4277 4273 4110 4097 4049 4745 
4752 4748 4749 
type 1 1065 int
2 2 2 2 2 2 2 2 2 
2 2 2 2 2 2 2 2 2 
2 2 2 2 2 2 2 2 2 
2 2 2 2 2 2 2 2 2 
2 2 2 2 2 2 2 2 2 
2 2 2 2 2 2 2 2 2 
2 2 2 2 2 2 2 2 2 
2 2 2 2 2 2 2 2 2 
2 2 2 2 2 2 2 2 2 
2 2 2 2 2 2 2 2 2 
2 2 2 2 2 2 2 2 2 
2 2 2 2 2 2 2 2 2 
2 2 2 2 2 2 2 2 2 
2 2 2 2 2 2 2 2 2 
2 2 2 2 2 2 2 2 2 
2 2 2 2 2 2 2 2 2 
2 2 2 2 2 2 2 2 2 
2 2 2 2 2 2 2 2 2 
2 2 2 2 2 2 2 2 2 
2 2 2 2 2 2 2 2 2 
2 2 2 2 2 2 2 2 2 
2 2 2 2 2 2 2 2 2 
2 2 2 2 2 2 2 2 2 
2 2 2 2 2 2 2 2 2 
2 2 2 2 2 2 2 2 2 
2 2 2 2 2 2 2 2 2 
2 2 2 2 2 2 2 2 2 
2 2 2 2 2 2 2 2 2 
2 2 2 2 2 2 2 2 2 
2 2 2 2 2 2 2 2 2 
2 2 2 2 2 2 2 2 2 
2 2 2 2 2 2 2 2 2 
2 2 2 2 2 2 2 2 2 
2 2 2 2 2 2 2 2 2 
2 2 2 2 2 2 2 2 2 
2 2 2 2 2 2 2 2 2 
2 2 2 2 2 2 2 2 2 
2 2 2 2 2 2 2 2 2 
2 2 2 2 2 2 2 2 2 
2 2 2 2 2 2 2 2 2 
2 2 2 2 2 2 2 2 2 
2 2 2 2 2 2 2 2 2 
2 2 2 2 2 2 2 2 2 
2 2 2 2 2 2 2 2 2 
2 2 2 2 2 2 2 2 2 
2 2 2 2 2 2 2 2 2 
2 2 2 2 2 2 2 2 2 
2 2 2 2 2 2 2 2 2 
2 2 2 2 2 2 2 2 2 
2 2 2 2 2 2 2 2 2 
2 2 2 2 2 2 2 2 2 
2 2 2 2 2 2 2 2 2 
2 2 2 2 2 2 2 2 2 
2 2 2 2 2 2 2 2 2 
2 2 2 2 2 2 2 2 2 
2 2 2 2 2 2 2 2 2 
2 2 2 2 2 2 2 2 2 
2 2 2 2 2 2 2 2 2 
2 2 2 2 2 2 2 2 2 
2 2 2 2 2 2 2 2 2 
2 2 2 2 2 2 2 2 2 
2 2 2 2 2 2 2 2 2 
2 2 2 2 2 2 2 2 2 
2 2 2 2 2 2 2 2 2 
2 2 2 2 2 2 2 2 2 
2 2 2 2 2 2 2 2 2 
2 2 2 2 2 2 2 2 2 
2 2 2 2 2 2 2 2 2 
2 2 2 2 2 2 2 2 2 
2 2 2 2 2 2 2 2 2 
2 2 2 2 2 2 2 2 2 
2 2 2 2 2 2 2 2 2 
2 2 2 2 2 2 2 2 2 
2 2 2 2 2 2 2 2 2 
2 2 2 2 2 2 2 2 2 
2 2 2 2 2 2 2 2 2 
2 2 2 2 2 2 2 2 2 
2 2 2 2 2 2 2 2 2 
2 2 2 2 2 2 2 2 2 
2 2 2 2 2 2 2 2 2 
2 2 2 2 2 2 2 2 2 
2 2 2 2 2 2 2 2 2 
2 2 2 2 2 2 2 2 2 
2 2 2 2 2 2 2 2 2 
2 2 2 2 2 2 2 2 2 
2 2 2 2 2 2 2 2 2 
2 2 2 2 2 2 2 2 2 
2 2 2 2 2 2 2 2 2 
2 2 2 2 2 2 2 2 2 
2 2 2 2 2 2 2 2 2 
2 2 2 2 2 2 2 2 2 
2 2 2 2 2 2 2 2 2 
2 2 2 2 2 2 2 2 2 
2 2 2 2 2 2 2 2 2 
2 2 2 2 2 2 2 2 2 
2 2 2 2 2 2 2 2 2 
2 2 2 2 2 2 2 2 2 
2 2 2 2 2 2 2 2 2 
2 2 2 2 2 2 2 2 2 
2 2 2 2 2 2 2 2 2 
2 2 2 2 2 2 2 2 2 
2 2 2 2 2 2 2 2 2 
2 2 2 2 2 2 2 2 2 
2 2 2 2 2 2 2 2 2 
2 2 2 2 2 2 2 2 2 
2 2 2 2 2 2 2 2 2 
2 2 2 2 2 2 2 2 2 
2 2 2 2 2 2 2 2 2 
2 2 2 2 2 2 2 2 2 
2 2 2 2 2 2 2 2 2 
2 2 2 2 2 2 2 2 2 
2 2 2 2 2 2 2 2 2 
2 2 2 2 2 2 2 2 2 
2 2 2 2 2 2 2 2 2 
2 2 2 2 2 2 2 2 2 
2 2 2 2 2 2 2 2 2 
2 2 2 2 2 2 2 2 2 
2 2 2 2 2 2 2 2 2 
2 2 2 
i 3 1065 int
0 0 0 0 0 0 0 0 0 
0 0 0 0 0 0 0 0 0 
0 0 0 0 0 0 0 0 0 
0 0 0 0 0 0 0 0 0 
0 0 0 0 0 0 0 0 0 
0 0 0 0 0 0 0 0 0 
0 0 0 0 0 0 0 0 0 
0 0 0 0 0 0 0 0 0 
0 0 0 0 0 0 0 0 0 
0 0 0 0 0 0 0 0 0 
0 0 0 0 0 0 0 0 0 
0 0 0 0 0 0 0 0 0 
0 0 0 0 0 0 0 0 0 
0 0 0 0 0 0 0 0 0 
0 0 0 0 0 0 0 0 0 
0 0 0 0 0 0 0 0 0 
0 0 0 0 0 0 0 0 0 
0 0 0 0 0 0 0 0 0 
0 0 0 0 0 0 0 0 0 
0 0 0 0 0 0 0 0 0 
0 0 0 0 0 0 0 0 0 
0 0 0 0 0 0 0 0 0 
0 0 0 0 0 0 0 0 0 
0 0 0 0 0 0 0 0 0 
0 0 0 0 0 0 0 0 0 
0 0 0 0 0 0 0 0 0 
0 0 0 0 0 0 0 0 0 
0 0 0 0 0 0 0 0 0 
0 0 0 0 0 0 0 0 0 
0 0 0 0 0 0 0 0 0 
0 0 0 0 0 0 0 0 0 
0 0 0 0 0 0 0 0 0 
0 0 0 0 0 0 0 0 0 
0 0 0 0 0 0 0 0 0 
0 0 0 0 0 0 0 0 0 
0 0 0 0 0 0 0 0 0 
0 0 0 0 0 0 0 0 0 
0 0 0 0 0 0 0 0 0 
0 0 0 0 0 0 0 0 0 
0 0 0 0 0 0 0 0 0 
0 0 0 0 0 0 0 0 0 
0 0 0 0 0 0 0 0 0 
0 0 0 0 0 0 0 0 0 
0 0 0 0 0 0 0 0 0 
0 0 0 0 0 0 0 0 0 
0 0 0 0 0 0 0 0 0 
0 0 0 0 0 0 0 0 0 
0 0 0 0 0 0 0 0 0 
0 0 0 0 0 0 0 0 0 
0 0 0 0 0 0 0 0 0 
0 0 0 0 0 0 0 0 0 
0 0 0 0 0 0 0 0 0 
0 0 0 0 0 0 0 0 0 
0 0 0 0 0 0 0 0 0 
0 0 0 0 0 0 0 0 0 
0 0 0 0 0 0 0 0 0 
0 0 0 0 0 0 0 0 0 
0 0 0 0 0 0 0 0 0 
0 0 0 0 0 0 0 0 0 
0 0 0 0 0 0 0 0 0 
0 0 0 0 0 0 0 0 0 
0 0 0 0 0 0 0 0 0 
0 0 0 0 0 0 0 0 0 
0 0 0 0 0 0 0 0 0 
0 0 0 0 0 0 0 0 0 
0 0 0 0 0 0 0 0 0 
0 0 0 0 0 0 0 0 0 
0 0 0 0 0 0 0 0 0 
0 0 0 0 0 0 0 0 0 
0 0 0 0 0 0 0 0 0 
0 0 0 0 0 0 0 0 0 
0 0 0 0 0 0 0 0 0 
0 0 0 0 0 0 0 0 0 
0 0 0 0 0 0 0 0 0 
0 0 0 0 0 0 0 0 0 
0 0 0 0 0 0 0 0 0 
0 0 0 0 0 0 0 0 0 
0 0 0 0 0 0 0 0 0 
0 0 0 0 0 0 0 0 0 
0 0 0 0 0 0 0 0 0 
0 0 0 0 0 0 0 0 0 
0 0 0 0 0 0 0 0 0 
0 0 0 0 0 0 0 0 0 
0 0 0 0 0 0 0 0 0 
0 0 0 0 0 0 0 0 0 
0 0 0 0 0 0 0 0 0 
0 0 0 0 0 0 0 0 0 
0 0 0 0 0 0 0 0 0 
0 0 0 0 0 0 0 0 0 
0 0 0 0 0 0 0 0 0 
0 0 0 0 0 0 0 0 0 
0 0 0 0 0 0 0 0 0 
0 0 0 0 0 0 0 0 0 
0 0 0 0 0 0 0 0 0 
0 0 0 0 0 0 0 0 0 
0 0 0 0 0 0 0 0 0 
0 0 0 0 0 0 0 0 0 
0 0 0 0 0 0 0 0 0 
0 0 0 0 0 0 0 0 0 
0 0 0 0 0 0 0 0 0 
0 0 0 0 0 0 0 0 0 
0 0 0 0 0 0 0 0 0 
0 0 0 0 0 0 0 0 0 
0 0 0 0 0 0 0 0 0 
0 0 0 0 0 0 0 0 0 
0 0 0 0 0 0 0 0 0 
0 0 0 0 0 0 0 0 0 
0 0 0 0 0 0 0 0 0 
0 0 0 0 0 0 0 0 0 
0 0 0 0 0 0 0 0 0 
0 0 0 0 0 0 0 0 0 
0 0 0 0 0 0 0 0 0 
0 0 0 0 0 0 0 0 0 
0 0 0 0 0 0 0 0 0 
0 0 0 0 0 0 0 0 0 
0 0 0 0 0 0 0 0 0 
0 0 0 0 0 0 0 0 0 
0 0 0 0 0 0 0 0 0 
0 0 0 0 0 0 0 0 0 
0 0 0 0 0 0 0 0 0 
0 0 0 0 0 0 0 0 0 
0 0 0 0 0 0 0 0 0 
0 0 0 0 0 0 0 0 0 
0 0 0 0 0 0 0 0 0 
0 0 0 0 0 0 0 0 0 
0 0 0 0 0 0 0 0 0 
0 0 0 0 0 0 0 0 0 
0 0 0 0 0 0 0 0 0 
0 0 0 0 0 0 0 0 0 
0 0 0 0 0 0 0 0 0 
0 0 0 0 0 0 0 0 0 
0 0 0 0 0 0 0 0 0 
0 0 0 0 0 0 0 0 0 
0 0 0 0 0 0 0 0 0 
0 0 0 0 0 0 0 0 0 
0 0 0 0 0 0 0 0 0 
0 0 0 0 0 0 0 0 0 
0 0 0 0 0 0 0 0 0 
0 0 0 0 0 0 0 0 0 
0 0 0 0 0 0 0 0 0 
0 0 0 0 0 0 0 0 0 
0 0 0 0 0 0 0 0 0 
0 0 0 0 0 0 0 0 0 
0 0 0 0 0 0 0 0 0 
0 0 0 0 0 0 0 0 0 
0 0 0 0 0 0 0 0 0 
0 0 0 0 0 0 0 0 0 
0 0 0 0 0 0 0 0 0 
0 0 0 0 0 0 0 0 0 
0 0 0 0 0 0 0 0 0 
0 0 0 0 0 0 0 0 0 
0 0 0 0 0 0 0 0 0 
0 0 0 0 0 0 0 0 0 
0 0 0 0 0 0 0 0 0 
0 0 0 0 0 0 0 0 0 
0 0 0 0 0 0 0 0 0 
0 0 0 0 0 0 0 0 0 
0 0 0 0 0 0 0 0 0 
0 0 0 0 0 0 0 0 0 
0 0 0 0 0 0 0 0 0 
0 0 0 0 0 0 0 0 0 
0 0 0 0 0 0 0 0 0 
0 0 0 0 0 0 0 0 0 
0 0 0 0 0 0 0 0 0 
0 0 0 0 0 0 0 0 0 
0 0 0 0 0 0 0 0 0 
0 0 0 0 0 0 0 0 0 
0 0 0 0 0 0 0 0 0 
0 0 0 0 0 0 0 0 0 
0 0 0 0 0 0 0 0 0 
0 0 0 0 0 0 0 0 0 
0 0 0 0 0 0 0 0 0 
0 0 0 0 0 0 0 0 0 
0 0 0 0 0 0 0 0 0 
0 0 0 0 0 0 0 0 0 
0 0 0 0 0 0 0 0 0 
0 0 0 0 0 0 0 0 0 
0 0 0 0 0 0 0 0 0 
0 0 0 0 0 0 0 0 0 
0 0 0 0 0 0 0 0 0 
0 0 0 0 0 0 0 0 0 
0 0 0 0 0 0 0 0 0 
0 0 0 0 0 0 0 0 0 
0 0 0 0 0 0 0 0 0 
0 0 0 0 0 0 0 0 0 
0 0 0 0 0 0 0 0 0 
0 0 0 0 0 0 0 0 0 
0 0 0 0 0 0 0 0 0 
0 0 0 0 0 0 0 0 0 
0 0 0 0 0 0 0 0 0 
0 0 0 0 0 0 0 0 0 
0 0 0 0 0 0 0 0 0 
0 0 0 0 0 0 0 0 0 
0 0 0 0 0 0 0 0 0 
0 0 0 0 0 0 0 0 0 
0 0 0 0 0 0 0 0 0 
0 0 0 0 0 0 0 0 0 
0 0 0 0 0 0 0 0 0 
0 0 0 0 0 0 0 0 0 
0 0 0 0 0 0 0 0 0 
0 0 0 0 0 0 0 0 0 
0 0 0 0 0 0 0 0 0 
0 0 0 0 0 0 0 0 0 
0 0 0 0 0 0 0 0 0 
0 0 0 0 0 0 0 0 0 
0 0 0 0 0 0 0 0 0 
0 0 0 0 0 0 0 0 0 
0 0 0 0 0 0 0 0 0 
0 0 0 0 0 0 0 0 0 
0 0 0 0 0 0 0 0 0 
0 0 0 0 0 0 0 0 0 
0 0 0 0 0 0 0 0 0 
0 0 0 0 0 0 0 0 0 
0 0 0 0 0 0 0 0 0 
0 0 0 0 0 0 0 0 0 
0 0 0 0 0 0 0 0 0 
0 0 0 0 0 0 0 0 0 
0 0 0 0 0 0 0 0 0 
0 0 0 0 0 0 0 0 0 
0 0 0 0 0 0 0 0 0 
0 0 0 0 0 0 0 0 0 
0 0 0 0 0 0 0 0 0 
0 0 0 0 0 0 0 0 0 
0 0 0 0 0 0 0 0 0 
0 0 0 0 0 0 0 0 0 
0 0 0 0 0 0 0 0 0 
0 0 0 0 0 0 0 0 0 
0 0 0 0 0 0 0 0 0 
0 0 0 0 0 0 0 0 0 
0 0 0 0 0 0 0 0 0 
0 0 0 0 0 0 0 0 0 
0 0 0 0 0 0 0 0 0 
0 0 0 0 0 0 0 0 0 
0 0 0 0 0 0 0 0 0 
0 0 0 0 0 0 0 0 0 
0 0 0 0 0 0 0 0 0 
0 0 0 0 0 0 0 0 0 
0 0 0 0 0 0 0 0 0 
0 0 0 0 0 0 0 0 0 
0 0 0 0 0 0 0 0 0 
0 0 0 0 0 0 0 0 0 
0 0 0 0 0 0 0 0 0 
0 0 0 0 0 0 0 0 0 
0 0 0 0 0 0 0 0 0 
0 0 0 0 0 0 0 0 0 
0 0 0 0 0 0 0 0 0 
0 0 0 0 0 0 0 0 0 
0 0 0 0 0 0 0 0 0 
0 0 0 0 0 0 0 0 0 
0 0 0 0 0 0 0 0 0 
0 0 0 0 0 0 0 0 0 
0 0 0 0 0 0 0 0 0 
0 0 0 0 0 0 0 0 0 
0 0 0 0 0 0 0 0 0 
0 0 0 0 0 0 0 0 0 
0 0 0 0 0 0 0 0 0 
0 0 0 0 0 0 0 0 0 
0 0 0 0 0 0 0 0 0 
0 0 0 0 0 0 0 0 0 
0 0 0 0 0 0 0 0 0 
0 0 0 0 0 0 0 0 0 
0 0 0 0 0 0 0 0 0 
0 0 0 0 0 0 0 0 0 
0 0 0 0 0 0 0 0 0 
0 0 0 0 0 0 0 0 0 
0 0 0 0 0 0 0 0 0 
0 0 0 0 0 0 0 0 0 
0 0 0 0 0 0 0 0 0 
0 0 0 0 0 0 0 0 0 
0 0 0 0 0 0 0 0 0 
0 0 0 0 0 0 0 0 0 
0 0 0 0 0 0 0 0 0 
0 0 0 0 0 0 0 0 0 
0 0 0 0 0 0 0 0 0 
0 0 0 0 0 0 0 0 0 
0 0 0 0 0 0 0 0 0 
0 0 0 0 0 0 0 0 0 
0 0 0 0 0 0 0 0 0 
0 0 0 0 0 0 0 0 0 
0 0 0 0 0 0 0 0 0 
0 0 0 0 0 0 0 0 0 
0 0 0 0 0 0 0 0 0 
0 0 0 0 0 0 0 0 0 
0 0 0 0 0 0 0 0 0 
0 0 0 0 0 0 0 0 0 
0 0 0 0 0 0 0 0 0 
0 0 0 0 0 0 0 0 0 
0 0 0 0 0 0 0 0 0 
0 0 0 0 0 0 0 0 0 
0 0 0 0 0 0 0 0 0 
0 0 0 0 0 0 0 0 0 
0 0 0 0 0 0 0 0 0 
0 0 0 0 0 0 0 0 0 
0 0 0 0 0 0 0 0 0 
0 0 0 0 0 0 0 0 0 
0 0 0 0 0 0 0 0 0 
0 0 0 0 0 0 0 0 0 
0 0 0 0 0 0 0 0 0 
0 0 0 0 0 0 0 0 0 
0 0 0 0 0 0 0 0 0 
0 0 0 0 0 0 0 0 0 
0 0 0 0 0 0 0 0 0 
0 0 0 0 0 0 0 0 0 
0 0 0 0 0 0 0 0 0 
0 0 0 0 0 0 0 0 0 
0 0 0 0 0 0 0 0 0 
0 0 0 0 0 0 0 0 0 
0 0 0 0 0 0 0 0 0 
0 0 0 0 0 0 0 0 0 
0 0 0 0 0 0 0 0 0 
0 0 0 0 0 0 0 0 0 
0 0 0 0 0 0 0 0 0 
0 0 0 0 0 0 0 0 0 
0 0 0 0 0 0 0 0 0 
0 0 0 0 0 0 0 0 0 
0 0 0 0 0 0 0 0 0 
0 0 0 0 0 0 0 0 0 
0 0 0 0 0 0 0 0 0 
0 0 0 0 0 0 0 0 0 
0 0 0 0 0 0 0 0 0 
0 0 0 0 0 0 0 0 0 
0 0 0 0 0 0 0 0 0 
0 0 0 0 0 0 0 0 0 
0 0 0 0 0 0 0 0 0 
0 0 0 0 0 0 0 0 0 
0 0 0 0 0 0 0 0 0 
0 0 0 0 0 0 0 0 0 
0 0 0 0 0 0 0 0 0 
0 0 0 0 0 0 0 0 0 
0 0 0 0 0 0 0 0 0 
0 0 0 0 0 0 0 0 0 
0 0 0 0 0 0 0 0 0 
0 0 0 0 0 0 0 0 0 
0 0 0 0 0 0 0 0 0 
0 0 0 0 0 0 0 0 0 
0 0 0 0 0 0 0 0 0 
0 0 0 0 0 0 0 0 0 
0 0 0 0 0 0 0 0 0 
0 0 0 0 0 0 0 0 0 
0 0 0 0 0 0 0 0 0 
0 0 0 0 0 0 0 0 0 
0 0 0 0 0 0 0 0 0 
0 0 0 0 0 0 0 0 0 
0 0 0 0 0 0 0 0 0 
0 0 0 0 0 0 0 0 0 
0 0 0 0 0 0 0 0 0 
0 0 0 0 0 0 0 0 0 
0 0 0 0 0 0 0 0 0 
0 0 0 0 0 0 0 0 0 
0 0 0 0 0 0 0 0 0 
0 0 0 0 0 0 0 0 0 
0 0 0 0 0 0 0 0 0 
0 0 0 0 0 0 0 0 0 
0 0 0 0 0 0 0 0 0 
0 0 0 0 0 0 0 0 0 

v 3 1065 double
0.0080156891962 -0.0015029605931 0.004447886628 0.010048934566 -0.00070430313784 0.0034683114765 -0.029080006669 0.04353332093 0.035337047209 
-0.13317801248 0.16221021249 0.0070055395523 0.0046274359853 0.008066801115 -0.0032981339191 -0.0056303209371 0.0085283445581 0.016039859049 
-0.027173646627 0.011902077028 0.021408443641 -0.01040054753 0.0058004044742 0.04555054737 -0.19048707261 0.037453699347 -0.044591951551 
-0.084222972431 0.081829535961 -0.0015657430505 -0.015970077835 0.15166809512 0.0078683031147 0.0084999301845 0.1323890659 0.0081926522313 
0.0041098429884 0.30328549985 0.0085481915591 0.0086390268809 0.038845535794 -0.0015567670795 0.019798951085 0.040401127349 0.0076420378047 
-0.078830096885 0.05744859893 0.00019912973901 -0.073359751146 0.048740936439 0.033533506534 0.00042695319134 0.13846042764 0.029105660503 
0.088754276994 0.22662720955 0.01755179333 -0.040956546694 0.26237529859 -0.077021290032 -0.015825932323 -0.0093599622889 0.054880867859 
-0.13444462905 -0.096310921272 -0.048121224652 -0.097613623005 0.14261836488 -0.069878233524 0.012445841211 0.010247161759 0.022377678425 
-0.055110835015 0.016838623604 0.044337729087 -0.021953360345 0.025884201396 0.04599242959 0.012718550083 0.067616469755 0.01425317236 
-0.073813710025 0.08258838943 0.042032440437 0.096087284017 0.12261288527 -0.004294039915 -0.024108631974 0.052866387327 -0.0092589620461 
-0.067244853967 0.04522047833 -0.011281584556 -0.046543241901 0.073906791384 0.057776194531 -0.005644904192 0.11634111591 0.004857108426 
-0.023837693753 0.013424326694 0.030482934101 -0.052806535397 0.024323413529 0.073682984456 -0.29508440245 -0.071096543414 -0.22995170811 
0.017418324533 0.057616216922 -0.030352324845 -0.031250205073 0.21919385107 0.082559184695 -0.00066328633309 0.27334262606 0.093316999735 
-0.013011560337 0.21057775716 -0.067361238852 -0.02568388976 0.17898130461 0.043235618101 0.049970442685 -0.065324642116 0.045880628903 
-0.1632132347 0.016458060305 -0.098071338305 0.010421709988 0.032597662155 0.089304931032 -0.0032792434209 0.15987574977 -0.11366743156 
0.035121297983 0.12847363527 0.096812815135 -0.084078667498 0.04976864582 -0.029746205785 -0.1093329276 0.013073293453 -0.054392005946 
0.084560273476 0.0049494460269 0.023097140815 8.7304082862e-05 0.05658216547 0.0490846904 -0.10514529648 0.01736526256 0.032910920883 
0.17906924697 0.04465336239 0.12954131523 0.0073616794846 0.22860097262 0.0056379145434 -0.081077584478 0.27179021998 -0.19453844851 
-0.023683525094 0.038479039595 0.077669425022 0.011388376557 0.041364487349 -0.11565082641 0.042602169189 0.089323789222 -0.065956124659 
0.015727314557 0.021455075493 -0.0024677751594 0.095677381331 0.0044200649861 -0.086041273012 -0.0039167831326 0.051254836739 -0.001557137884 
0.088817694295 0.1124998154 -0.053149249242 -0.041178332009 0.14957725344 0.14796284926 -0.011140416409 0.097767829241 -0.12921837017 
0.086954209449 0.2526704874 -0.16366621469 0.12805066387 0.097112908791 0.070525714734 0.21273066105 0.083784470045 0.0040210919325 
-0.016476201133 0.099454444818 -0.084306564822 0.021048419661 0.14836727693 0.023197587498 0.13721431181 0.10181133851 -0.021435361436 
0.032153006952 0.017443458787 0.013840565836 -0.12138748745 0.023556564993 -0.062933400745 0.11675560386 0.0055103898253 0.016518092401 
0.028538407798 0.025056636625 -0.064268107381 0.031590655792 0.043572963739 -0.02529784089 0.066069911894 0.030486271706 0.011613924384 
0.0720265258 0.092481050782 0.10567728676 -0.033229108723 0.13146619811 -0.072439225811 -0.15104217532 0.21350433729 -0.08847513098 
-0.025594285419 -0.014935601697 -0.022341376857 -0.056134412897 -0.038602294024 -3.5635321372e-05 0.13889610943 -0.022972110717 0.059703086428 
0.0027558020571 0.066480200587 0.020948937278 0.068650783752 0.018026213225 0.060475464125 0.0094198569489 0.15103026516 -0.022541178981 
-0.0027343479842 0.020591615742 0.016982238916 -0.02456028625 0.011359228832 -0.0113720337 0.027032685635 0.021794619309 -0.024559164227 
-0.075355759169 0.021676425543 0.0073510566327 0.014928890544 0.04441030584 -0.041816267398 -0.019593090008 0.057115403233 0.099738465183 
-0.082935369571 0.12454513688 0.22031739751 -0.047772226234 0.0132061549 0.03151757883 0.080529813377 0.0057628936695 0.0071294393731 
-0.010215913331 0.035447076697 0.029717211007 0.048239276178 0.099225294711 0.24497616456 -0.0096628145522 0.033629140474 0.017212347142 
0.0050733256563 0.016862138436 0.042681092749 0.049403257311 0.043097090476 -0.013412633032 -0.0019492195281 0.06894765178 0.027024499287 
0.017297158063 0.051523199259 0.034196204277 0.058714015235 0.0017270508604 -0.0052240249124 -0.029110559063 0.018207847277 -0.076876075613 
-0.0039913111495 0.045910097796 0.029473773607 -0.19451755495 0.039668183639 -0.064885900376 -0.0061600299512 0.11429591419 0.13432692073 
-0.029513261594 0.16173266479 0.02841832475 0.058087612515 0.020893658911 0.057573748421 0.043123495637 0.038606691854 0.058239888712 
-0.021958819501 0.054191597684 0.048298013441 -0.093883439559 0.14252171153 0.082969879669 0.045861773211 0.010416166083 0.066043061475 
0.024759942221 0.078324211804 0.044473428344 -0.028734807798 0.24194419456 -0.0010331898798 -0.046054797591 0.035397971386 0.092164701031 
-0.0033120346244 0.036987221945 0.014520019751 0.040692486761 0.040028993819 0.016705036457 -0.01446684177 0.032878853391 -0.0024533046815 