# vtk DataFile Version 5.1
Generated by LIGGGHTS
ASCII
DATASET POLYDATA
POINTS 715 float
-0.0968266 0.366177 -0.143335 -0.0577119 0.237476 -0.138986 -0.0535085 0.237476 -0.138986 
-0.107113 0.245663 -0.0516486 -0.0577119 0.24168 -0.138986 -0.0535085 0.24168 -0.138986 
-0.0526726 0.262194 -0.135726 -0.0491548 0.285139 -0.13962 -0.0446185 0.326774 -0.135938 
-0.0454744 0.341848 -0.140232 -0.0182795 0.356913 -0.139495 -0.0577119 0.237476 -0.134783 
-0.0535085 0.237476 -0.134783 -0.0577119 0.24168 -0.134783 -0.0535085 0.24168 -0.134783 
-0.143314 0.2526 -0.130361 -0.10415 0.284658 -0.133712 -0.00881399 0.293244 -0.132923 
-0.140732 0.304641 -0.134945 -0.138589 0.318912 -0.129026 -0.145125 0.238304 -0.123535 
-0.145125 0.242371 -0.123535 -0.141058 0.238304 -0.123535 -0.141058 0.242371 -0.123535 
-0.107113 0.245663 -0.0555801 -0.103462 0.297939 -0.120522 -0.0515341 0.34607 -0.127425 
-0.122861 0.348123 -0.127093 -0.111383 0.357869 -0.123058 -0.0230537 0.36608 -0.127002 
-0.145125 0.238304 -0.119468 -0.145125 0.242371 -0.119468 -0.141058 0.238304 -0.119468 
-0.141058 0.242371 -0.119468 -0.0534995 0.313825 -0.11727 -0.118981 0.317752 -0.117403 
-0.132999 0.371105 -0.115962 -0.141761 0.253395 -0.110083 -0.0380721 0.252173 -0.107842 
-0.0745833 0.257956 -0.108412 -0.101669 0.276493 -0.108723 -0.0267692 0.320778 -0.1099 
-0.138159 0.342662 -0.10984 -0.0515685 0.368499 -0.109691 -0.0991377 0.243105 -0.0990089 
-0.0991377 0.243105 -0.103076 -0.103205 0.239037 -0.103076 -0.103205 0.239037 -0.0990089 
-0.103205 0.243105 -0.103076 -0.103205 0.243105 -0.0990089 -0.0991377 0.239037 -0.103076 
-0.0991377 0.239037 -0.0990089 -0.112679 0.247283 -0.0301333 -0.0332327 0.288489 -0.0986307 
-0.130792 0.266935 -0.0940635 -0.130674 0.299734 -0.0927441 -0.00518116 0.300261 -0.0963434 
-0.0120883 0.312667 -0.0904519 -0.0734165 0.36917 -0.0920277 -0.131521 0.235802 -0.0853109 
-0.127317 0.235802 -0.0853109 -0.127317 0.240005 -0.0853109 -0.131521 0.240005 -0.0853109 
-0.062062 0.253379 -0.0831793 -0.069728 0.261768 -0.0888702 -0.0501266 0.302385 -0.0883583 
-0.0817107 0.318772 -0.0843749 -0.0211542 0.342065 -0.0863957 -0.0798159 0.364378 -0.0828913 
-0.131521 0.235802 -0.0811074 -0.127317 0.235802 -0.0811074 -0.0485307 0.231623 -0.0807071 
-0.0485307 0.231623 -0.0762317 -0.0485307 0.236099 -0.0807071 -0.0485307 0.236099 -0.0762317 
-0.0440552 0.236099 -0.0762317 -0.0440552 0.231623 -0.0807071 -0.0440552 0.231623 -0.0762317 
-0.0440552 0.236099 -0.0807071 -0.127317 0.240005 -0.0811074 -0.131521 0.240005 -0.0811074 
-0.076309 0.353882 -0.0812707 -0.0136348 0.269481 -0.0687578 -0.0597838 0.293167 -0.0719343 
-0.038228 0.331901 -0.0685044 -0.0848687 0.342584 -0.0727553 -0.119684 0.348233 -0.073814 
-0.0804051 0.361362 -0.068279 -0.104287 0.370394 -0.0694726 -0.112679 0.247283 -0.0339288 
-0.110845 0.252202 -0.066557 -0.0929957 0.251185 -0.0627555 -0.0976616 0.282261 -0.0672923 
-0.0693152 0.300156 -0.0610542 -0.00713398 0.329233 -0.0640921 -0.0920262 0.345619 -0.0624895 
-0.107113 0.241732 -0.0516486 -0.0166789 0.257317 -0.0572859 -0.078054 0.276166 -0.0533982 
-0.108477 0.307135 -0.0537933 -0.0370217 0.355749 -0.0553653 -0.112679 0.243488 -0.0301333 
-0.136227 0.267982 -0.0489997 -0.0525013 0.28992 -0.0408698 -0.131004 0.297747 -0.0419639 
-0.116634 0.304137 -0.0414284 -0.0653343 0.306271 -0.0390879 -0.137152 0.320568 -0.0423483 
-0.0238579 0.350288 -0.0402703 -0.112679 0.243488 -0.0339288 -0.0277104 0.25091 -0.0361909 
-0.0667735 0.268412 -0.0301121 -0.0299543 0.338614 -0.0371244 -0.0107344 0.267466 -0.0234324 
-0.0301452 0.27947 -0.027196 -0.123123 0.299292 -0.0263399 -0.0239581 0.315991 -0.024581 
-0.0996132 0.330904 -0.0279643 -0.0535696 0.335027 -0.0244976 -0.0860737 0.339168 -0.0236139 
-0.100567 0.348102 -0.0225878 -0.0164987 0.250369 -0.016845 -0.110466 0.320364 -0.0162162 
-0.0998943 0.256195 -0.0134031 -0.0381165 0.255169 -0.00826074 -0.021079 0.254589 -0.00764093 
-0.060613 0.306826 -0.0116719 -0.0943126 0.318249 -0.00939672 -0.0732826 0.36863 -0.00888315 
-0.109683 0.291395 -0.00693759 -0.0473411 0.318053 -0.00588811 -0.0842163 0.357216 -0.00598018 
-0.107019 0.242458 -0.144297 -0.107019 0.242458 -0.140365 -0.107019 0.24639 -0.144297 
-0.107019 0.24639 -0.140365 -0.103088 0.242458 -0.144297 -0.103088 0.242458 -0.140365 
-0.103088 0.24639 -0.144297 -0.103088 0.24639 -0.140365 -0.127511 0.240987 -0.128165 
-0.127511 0.240987 -0.124233 -0.127511 0.244918 -0.128165 -0.127511 0.244918 -0.124233 
-0.123579 0.240987 -0.128165 -0.123579 0.240987 -0.124233 -0.123579 0.244918 -0.128165 
-0.123579 0.244918 -0.124233 -0.111044 0.241732 -0.0555801 -0.111044 0.241732 -0.0516486 
-0.111044 0.245663 -0.0555801 -0.111044 0.245663 -0.0516486 -0.107113 0.241732 -0.0555801 
-0.13826 0.244956 -0.102985 -0.13826 0.244956 -0.0991899 -0.13826 0.248752 -0.102985 
-0.13826 0.248752 -0.0991899 -0.134464 0.244956 -0.102985 -0.134464 0.244956 -0.0991899 
-0.134464 0.248752 -0.102985 -0.134464 0.248752 -0.0991899 -0.0443077 0.243888 -0.0641624 
-0.0443077 0.243888 -0.0603669 -0.0443077 0.247683 -0.0641624 -0.0443077 0.247683 -0.0603669 
-0.0405122 0.243888 -0.0641624 -0.0405122 0.243888 -0.0603669 -0.0405122 0.247683 -0.0641624 
-0.0405122 0.247683 -0.0603669 -0.0503766 0.243398 -0.0469284 -0.0503766 0.243398 -0.0431329 
-0.0503766 0.247193 -0.0469284 -0.0503766 0.247193 -0.0431329 -0.0465812 0.243398 -0.0469284 
-0.0465812 0.243398 -0.0431329 -0.0465812 0.247193 -0.0469284 -0.0465812 0.247193 -0.0431329 
-0.116474 0.243488 -0.0339288 -0.116474 0.243488 -0.0301333 -0.116474 0.247283 -0.0339288 
-0.116474 0.247283 -0.0301333 -0.0201624 0.246705 -0.0205086 -0.0201624 0.246705 -0.016845 
-0.0201624 0.250369 -0.0205086 -0.0201624 0.250369 -0.016845 -0.0164987 0.246705 -0.0205086 
-0.0164987 0.246705 -0.016845 -0.0164987 0.250369 -0.0205086 -0.0932046 0.340375 0.00601343 
-0.0607571 0.249974 0.0992658 -0.105467 0.350532 0.0127496 -0.0713377 0.357199 0.00810886 
-0.0196513 0.250806 0.0201801 -0.14167 0.275697 0.0195889 -0.0831145 0.274867 0.0180729 
-0.0902177 0.291093 0.0218815 -0.0703776 0.293422 0.0154106 -0.0279571 0.30539 0.019228 
-0.0951608 0.312495 0.021464 -0.138444 0.344151 0.0165328 -0.00538411 0.339278 0.0197977 
-0.0114432 0.353513 0.0154739 -0.133017 0.36334 0.0223265 -0.110499 0.365892 0.0221454 
-0.0743449 0.365946 0.0186564 -0.10738 0.297377 0.0299973 -0.0561603 0.293342 0.0276403 
-0.0829165 0.301652 0.0289457 -0.064406 0.308515 0.02512 -0.110181 0.320179 0.0281834 
-0.142587 0.324812 0.029325 -0.0616183 0.360555 0.0228837 -0.0534849 0.259562 0.0351251 
-0.00745925 0.262391 0.0323235 -0.124039 0.349659 0.0360192 -0.0523997 0.348525 0.0366571 
-0.141341 0.262124 0.0388014 -0.131103 0.274101 0.0400782 -0.0615513 0.287997 0.0422996 
-0.0376459 0.365858 0.0417043 -0.0828696 0.246788 0.0516344 -0.0484872 0.255725 0.0455552 
-0.119144 0.277707 0.0505097 -0.0947599 0.300528 0.0450573 -0.0424593 0.316843 0.0458668 
-0.0347731 0.348204 0.0450557 -0.0534488 0.266561 0.0560517 -0.0771971 0.277779 0.0526142 
-0.11185 0.322627 0.0578314 -0.0490492 0.239752 0.064685 -0.0490492 0.24382 0.064685 
-0.0449817 0.239752 0.064685 -0.0449817 0.24382 0.064685 -0.102027 0.254174 0.0668711 
-0.0356767 0.311078 0.0635149 -0.0643946 0.350017 0.0601043 -0.104136 0.362923 0.0671481 
-0.0449817 0.24382 0.0687525 -0.0490492 0.239752 0.0687525 -0.0490492 0.24382 0.0687525 
-0.0449817 0.239752 0.0687525 -0.100122 0.32468 0.072229 -0.143015 0.334444 0.0714206 
-0.0910979 0.348081 0.0716227 -0.134934 0.250792 0.0756076 -0.124768 0.257646 0.0791523 
-0.0213553 0.261823 0.0772928 -0.0838456 0.287669 0.0777862 -0.0833357 0.306831 0.0792874 
-0.0577023 0.328188 0.0771205 -0.037139 0.335551 0.082308 -0.0581208 0.344333 0.0816341 
-0.111022 0.283645 0.0873247 -0.136886 0.288696 0.0885133 -0.105041 0.302521 0.0856485 
-0.0804609 0.323815 0.0860046 -0.0938741 0.338006 0.0827266 -0.0607571 0.249974 0.0956021 
-0.0433899 0.276371 0.0919096 -0.0614774 0.328743 0.0974282 -0.11616 0.333276 0.0946087 
-0.0260907 0.228085 0.104045 -0.0214787 0.228085 0.104045 -0.0260907 0.232697 0.104045 
-0.0214787 0.232697 0.104045 -0.0121866 0.309287 0.102116 -0.0892603 0.331322 0.101333 
-0.0259644 0.3462 0.10404 -0.0691507 0.36479 0.09961 -0.0260907 0.228085 0.108657 
-0.0214787 0.228085 0.108657 -0.102205 0.232438 0.108384 -0.102205 0.236913 0.108384 
-0.0977293 0.232438 0.108384 -0.0977293 0.236913 0.108384 -0.0260907 0.232697 0.108657 
-0.0214787 0.232697 0.108657 -0.0599907 0.267081 0.11027 -0.076634 0.292401 0.105376 
-0.06687 0.295471 0.108952 -0.0562675 0.292874 0.105594 -0.0264673 0.294525 0.108353 
-0.135805 0.311759 0.108985 -0.114231 0.352876 0.109012 -0.0625108 0.360792 0.105991 
-0.0977293 0.236913 0.112859 -0.102205 0.232438 0.112859 -0.102205 0.236913 0.112859 
-0.0977293 0.232438 0.112859 -0.0293869 0.273704 0.118728 -0.0465743 0.306092 0.11797 
-0.0255013 0.330207 0.117597 -0.0370499 0.332626 0.119651 -0.0549152 0.37045 0.118418 
-0.0564301 0.25855 0.121053 -0.112732 0.335643 0.125664 -0.127378 0.341257 0.125767 
-0.0682494 0.362623 0.125955 -0.0302344 0.2448 0.136058 -0.0773856 0.260621 0.129892 
-0.047278 0.329378 0.132294 -0.0170764 0.326148 0.133228 -0.0307489 0.334037 0.133351 
-0.0425636 0.363186 0.134216 -0.115354 0.234721 0.138305 -0.115354 0.234721 0.142644 
-0.111015 0.234721 0.138305 -0.111015 0.234721 0.142644 -0.115354 0.23906 0.138305 
-0.115354 0.23906 0.142644 -0.111015 0.23906 0.142644 -0.111015 0.23906 0.138305 
-0.0534394 0.273687 0.137609 -0.0704559 0.327701 0.141425 -0.0740873 0.344783 0.136003 
-0.0765012 0.27475 0.144301 -0.0394486 0.366944 0.144256 -0.0341658 0.240868 0.132127 
-0.0341658 0.240868 0.136058 -0.0341658 0.2448 0.132127 -0.0341658 0.2448 0.136058 
-0.0302344 0.240868 0.132127 -0.0302344 0.240868 0.136058 -0.0302344 0.2448 0.132127 
-0.0866651 0.242993 0.0478389 -0.0866651 0.242993 0.0516344 -0.0866651 0.246788 0.0478389 
-0.0866651 0.246788 0.0516344 -0.0828696 0.242993 0.0478389 -0.0828696 0.242993 0.0516344 
[...]
POINT_DATA 715
FIELD FieldData 8
id 1 715 int
61 531 535 617 533 537 47 13 14 
35 52 532 536 534 538 17 48 57 
49 73 563 565 567 569 618 9 76 
5 7 51 564 566 568 570 96 90 
44 64 54 24 97 79 74 55 561 
562 571 572 573 574 575 576 665 32 
23 69 84 29 2 539 543 530 541 
94 65 20 63 46 41 540 544 450 
451 452 453 449 454 455 456 529 542 
86 28 3 8 77 58 36 78 666 
1 85 80 72 33 66 619 87 27 
95 93 667 53 59 81 39 37 82 
50 668 25 16 42 26 75 34 31 
70 22 91 43 721 67 38 21 45 
89 68 12 19 6 56 620 621 622 
623 624 625 626 627 628 629 630 631 
632 633 634 635 636 637 638 639 640 
669 670 671 672 673 674 675 676 677 
678 679 680 681 682 683 684 685 686 
687 688 689 690 691 692 693 694 695 
696 722 723 724 725 726 727 728 135 
729 121 131 152 151 186 99 125 192 
173 185 110 117 153 107 120 148 144 
180 132 181 115 165 177 171 111 178 
145 118 195 128 697 158 179 130 163 
116 175 140 191 578 580 582 584 113 
102 146 159 577 579 581 583 101 166 
142 149 127 182 167 189 133 100 169 
188 143 154 124 138 730 126 156 164 
402 406 404 408 162 176 112 109 403 
407 458 460 462 464 405 401 137 147 
106 119 194 134 139 170 457 459 461 
463 184 198 129 123 103 155 141 122 
183 641 161 114 190 105 160 506 507 
510 511 508 509 505 512 174 196 157 
98 172 642 643 644 645 646 647 648 
698 699 700 701 702 703 704 731 732 
733 734 735 736 737 738 739 740 741 
742 743 744 219 216 230 267 291 223 
203 745 241 242 243 227 284 254 199 
218 283 290 204 705 233 257 270 211 
231 293 595 597 586 599 587 589 591 
593 207 220 214 596 598 585 600 588 
590 592 594 213 222 212 262 244 221 
476 478 480 482 515 516 519 520 517 
518 521 522 261 237 210 205 215 272 
232 200 238 264 477 479 481 483 523 
524 525 526 513 514 527 528 224 289 
263 235 279 249 269 209 276 287 280 
253 226 428 432 468 472 430 410 470 
474 208 201 286 258 429 411 469 473 
484 488 431 409 471 475 466 486 285 
265 250 236 412 416 467 485 414 418 
465 487 247 255 271 295 260 292 413 
417 420 424 415 419 422 426 274 259 
273 275 421 425 423 427 282 240 245 
278 268 277 228 229 266 217 206 239 
706 707 708 709 710 711 712 746 747 
748 749 750 751 752 373 374 356 352 
378 386 649 369 303 311 336 341 547 
551 549 553 650 312 316 344 298 367 
385 548 552 550 554 337 380 323 379 
368 313 324 347 354 309 321 383 384 
392 350 366 318 342 328 331 372 400 
388 555 559 557 546 377 382 305 353 
556 560 558 545 753 302 381 301 326 
364 362 330 339 343 327 363 345 297 
355 319 300 325 314 329 299 306 370 
435 436 439 440 499 500 501 502 489 
490 503 504 437 438 441 442 310 322 
351 397 332 358 443 444 447 448 433 
434 445 446 307 357 389 399 387 346 
349 320 304 348 395 491 493 495 497 
602 611 613 615 315 360 371 334 390 
375 308 376 492 494 496 498 713 601 
612 614 616 338 603 604 605 606 607 
608 609 610 651 652 653 654 655 656 
657 658 659 660 661 662 663 664 714 
715 716 717 718 719 720 754 755 756 
757 758 759 760 
type 1 715 int
2 2 2 2 2 2 2 2 2 
2 2 2 2 2 2 2 2 2 
2 2 2 2 2 2 2 2 2 
2 2 2 2 2 2 2 2 2 
2 2 2 2 2 2 2 2 2 
2 2 2 2 2 2 2 2 2 
2 2 2 2 2 2 2 2 2 
2 2 2 2 2 2 2 2 2 
2 2 2 2 2 2 2 2 2 
2 2 2 2 2 2 2 2 2 
2 2 2 2 2 2 2 2 2 
2 2 2 2 2 2 2 2 2 
2 2 2 2 2 2 2 2 2 
2 2 2 2 2 2 2 2 2 
2 2 2 2 2 2 2 2 2 
2 2 2 2 2 2 2 2 2 
2 2 2 2 2 2 2 2 2 
2 2 2 2 2 2 2 2 2 
2 2 2 2 2 2 2 2 2 
2 2 2 2 2 2 2 2 2 
2 2 2 2 2 2 2 2 2 
2 2 2 2 2 2 2 2 2 
2 2 2 2 2 2 2 2 2 
2 2 2 2 2 2 2 2 2 
2 2 2 2 2 2 2 2 2 
2 2 2 2 2 2 2 2 2 
2 2 2 2 2 2 2 2 2 
2 2 2 2 2 2 2 2 2 
2 2 2 2 2 2 2 2 2 
2 2 2 2 2 2 2 2 2 
2 2 2 2 2 2 2 2 2 
2 2 2 2 2 2 2 2 2 
2 2 2 2 2 2 2 2 2 
2 2 2 2 2 2 2 2 2 
2 2 2 2 2 2 2 2 2 
2 2 2 2 2 2 2 2 2 
2 2 2 2 2 2 2 2 2 
2 2 2 2 2 2 2 2 2 
2 2 2 2 2 2 2 2 2 
2 2 2 2 2 2 2 2 2 
2 2 2 2 2 2 2 2 2 
2 2 2 2 2 2 2 2 2 
2 2 2 2 2 2 2 2 2 
2 2 2 2 2 2 2 2 2 
2 2 2 2 2 2 2 2 2 
2 2 2 2 2 2 2 2 2 
2 2 2 2 2 2 2 2 2 
2 2 2 2 2 2 2 2 2 
2 2 2 2 2 2 2 2 2 
2 2 2 2 2 2 2 2 2 
2 2 2 2 2 2 2 2 2 
2 2 2 2 2 2 2 2 2 
2 2 2 2 2 2 2 2 2 
2 2 2 2 2 2 2 2 2 
2 2 2 2 2 2 2 2 2 
2 2 2 2 2 2 2 2 2 
2 2 2 2 2 2 2 2 2 
2 2 2 2 2 2 2 2 2 
2 2 2 2 2 2 2 2 2 
2 2 2 2 2 2 2 2 2 
2 2 2 2 2 2 2 2 2 
2 2 2 2 2 2 2 2 2 
2 2 2 2 2 2 2 2 2 
2 2 2 2 2 2 2 2 2 
2 2 2 2 2 2 2 2 2 
2 2 2 2 2 2 2 2 2 
2 2 2 2 2 2 2 2 2 
2 2 2 2 2 2 2 2 2 
2 2 2 2 2 2 2 2 2 
2 2 2 2 2 2 2 2 2 
2 2 2 2 2 2 2 2 2 
2 2 2 2 2 2 2 2 2 
2 2 2 2 2 2 2 2 2 
2 2 2 2 2 2 2 2 2 
2 2 2 2 2 2 2 2 2 
2 2 2 2 2 2 2 2 2 
2 2 2 2 2 2 2 2 2 
2 2 2 2 2 2 2 2 2 
2 2 2 2 2 2 2 2 2 
2 2 2 2 
i 3 715 int
0 0 0 0 0 0 0 0 0 
0 0 0 0 0 0 0 0 0 
0 0 0 0 0 0 0 0 0 
0 0 0 0 0 0 0 0 0 
0 0 0 0 0 0 0 0 0 
0 0 0 0 0 0 0 0 0 
0 0 0 0 0 0 0 0 0 
0 0 0 0 0 0 0 0 0 
0 0 0 0 0 0 0 0 0 
0 0 0 0 0 0 0 0 0 
0 0 0 0 0 0 0 0 0 
0 0 0 0 0 0 0 0 0 
0 0 0 0 0 0 0 0 0 
0 0 0 0 0 0 0 0 0 
0 0 0 0 0 0 0 0 0 
0 0 0 0 0 0 0 0 0 
0 0 0 0 0 0 0 0 0 
0 0 0 0 0 0 0 0 0 
0 0 0 0 0 0 0 0 0 
0 0 0 0 0 0 0 0 0 
0 0 0 0 0 0 0 0 0 
0 0 0 0 0 0 0 0 0 
0 0 0 0 0 0 0 0 0 
0 0 0 0 0 0 0 0 0 
0 0 0 0 0 0 0 0 0 
0 0 0 0 0 0 0 0 0 
0 0 0 0 0 0 0 0 0 
0 0 0 0 0 0 0 0 0 
0 0 0 0 0 0 0 0 0 
0 0 0 0 0 0 0 0 0 
0 0 0 0 0 0 0 0 0 
0 0 0 0 0 0 0 0 0 
0 0 0 0 0 0 0 0 0 
0 0 0 0 0 0 0 0 0 
0 0 0 0 0 0 0 0 0 
0 0 0 0 0 0 0 0 0 
0 0 0 0 0 0 0 0 0 
0 0 0 0 0 0 0 0 0 
0 0 0 0 0 0 0 0 0 
0 0 0 0 0 0 0 0 0 
0 0 0 0 0 0 0 0 0 
0 0 0 0 0 0 0 0 0 
0 0 0 0 0 0 0 0 0 
0 0 0 0 0 0 0 0 0 
0 0 0 0 0 0 0 0 0 
0 0 0 0 0 0 0 0 0 
0 0 0 0 0 0 0 0 0 
0 0 0 0 0 0 0 0 0 
0 0 0 0 0 0 0 0 0 
0 0 0 0 0 0 0 0 0 
0 0 0 0 0 0 0 0 0 
0 0 0 0 0 0 0 0 0 
0 0 0 0 0 0 0 0 0 
0 0 0 0 0 0 0 0 0 
0 0 0 0 0 0 0 0 0 
0 0 0 0 0 0 0 0 0 
0 0 0 0 0 0 0 0 0 
0 0 0 0 0 0 0 0 0 
0 0 0 0 0 0 0 0 0 
0 0 0 0 0 0 0 0 0 
0 0 0 0 0 0 0 0 0 
0 0 0 0 0 0 0 0 0 
0 0 0 0 0 0 0 0 0 
0 0 0 0 0 0 0 0 0 
0 0 0 0 0 0 0 0 0 
0 0 0 0 0 0 0 0 0 
0 0 0 0 0 0 0 0 0 
0 0 0 0 0 0 0 0 0 
0 0 0 0 0 0 0 0 0 
0 0 0 0 0 0 0 0 0 
0 0 0 0 0 0 0 0 0 
0 0 0 0 0 0 0 0 0 
0 0 0 0 0 0 0 0 0 
0 0 0 0 0 0 0 0 0 
0 0 0 0 0 0 0 0 0 
0 0 0 0 0 0 0 0 0 
0 0 0 0 0 0 0 0 0 
0 0 0 0 0 0 0 0 0 
0 0 0 0 0 0 0 0 0 
0 0 0 0 0 0 0 0 0 
0 0 0 0 0 0 0 0 0 
0 0 0 0 0 0 0 0 0 
0 0 0 0 0 0 0 0 0 
0 0 0 0 0 0 0 0 0 
0 0 0 0 0 0 0 0 0 
0 0 0 0 0 0 0 0 0 
0 0 0 0 0 0 0 0 0 
0 0 0 0 0 0 0 0 0 
0 0 0 0 0 0 0 0 0 
0 0 0 0 0 0 0 0 0 
0 0 0 0 0 0 0 0 0 
0 0 0 0 0 0 0 0 0 
0 0 0 0 0 0 0 0 0 
0 0 0 0 0 0 0 0 0 
0 0 0 0 0 0 0 0 0 
0 0 0 0 0 0 0 0 0 
0 0 0 0 0 0 0 0 0 
0 0 0 0 0 0 0 0 0 
0 0 0 0 0 0 0 0 0 
0 0 0 0 0 0 0 0 0 
0 0 0 0 0 0 0 0 0 
0 0 0 0 0 0 0 0 0 
0 0 0 0 0 0 0 0 0 
0 0 0 0 0 0 0 0 0 
0 0 0 0 0 0 0 0 0 
0 0 0 0 0 0 0 0 0 
0 0 0 0 0 0 0 0 0 
0 0 0 0 0 0 0 0 0 
0 0 0 0 0 0 0 0 0 
0 0 0 0 0 0 0 0 0 
0 0 0 0 0 0 0 0 0 
0 0 0 0 0 0 0 0 0 
0 0 0 0 0 0 0 0 0 
0 0 0 0 0 0 0 0 0 
0 0 0 0 0 0 0 0 0 
0 0 0 0 0 0 0 0 0 
0 0 0 0 0 0 0 0 0 
0 0 0 0 0 0 0 0 0 
0 0 0 0 0 0 0 0 0 
0 0 0 0 0 0 0 0 0 
0 0 0 0 0 0 0 0 0 
0 0 0 0 0 0 0 0 0 
0 0 0 0 0 0 0 0 0 
0 0 0 0 0 0 0 0 0 
0 0 0 0 0 0 0 0 0 
0 0 0 0 0 0 0 0 0 
0 0 0 0 0 0 0 0 0 
0 0 0 0 0 0 0 0 0 
0 0 0 0 0 0 0 0 0 
0 0 0 0 0 0 0 0 0 
0 0 0 0 0 0 0 0 0 
0 0 0 0 0 0 0 0 0 
0 0 0 0 0 0 0 0 0 
0 0 0 0 0 0 0 0 0 
0 0 0 0 0 0 0 0 0 
0 0 0 0 0 0 0 0 0 
0 0 0 0 0 0 0 0 0 
0 0 0 0 0 0 0 0 0 
0 0 0 0 0 0 0 0 0 
0 0 0 0 0 0 0 0 0 
0 0 0 0 0 0 0 0 0 
0 0 0 0 0 0 0 0 0 
0 0 0 0 0 0 0 0 0 
0 0 0 0 0 0 0 0 0 
0 0 0 0 0 0 0 0 0 
0 0 0 0 0 0 0 0 0 
0 0 0 0 0 0 0 0 0 
0 0 0 0 0 0 0 0 0 
0 0 0 0 0 0 0 0 0 
0 0 0 0 0 0 0 0 0 
0 0 0 0 0 0 0 0 0 
0 0 0 0 0 0 0 0 0 
0 0 0 0 0 0 0 0 0 
0 0 0 0 0 0 0 0 0 
0 0 0 0 0 0 0 0 0 
0 0 0 0 0 0 0 0 0 
0 0 0 0 0 0 0 0 0 
0 0 0 0 0 0 0 0 0 
0 0 0 0 0 0 0 0 0 
0 0 0 0 0 0 0 0 0 
0 0 0 0 0 0 0 0 0 
0 0 0 0 0 0 0 0 0 
0 0 0 0 0 0 0 0 0 
0 0 0 0 0 0 0 0 0 
0 0 0 0 0 0 0 0 0 
0 0 0 0 0 0 0 0 0 
0 0 0 0 0 0 0 0 0 
0 0 0 0 0 0 0 0 0 
0 0 0 0 0 0 0 0 0 
0 0 0 0 0 0 0 0 0 
0 0 0 0 0 0 0 0 0 
0 0 0 0 0 0 0 0 0 
0 0 0 0 0 0 0 0 0 
0 0 0 0 0 0 0 0 0 
0 0 0 0 0 0 0 0 0 
0 0 0 0 0 0 0 0 0 
0 0 0 0 0 0 0 0 0 
0 0 0 0 0 0 0 0 0 
0 0 0 0 0 0 0 0 0 
0 0 0 0 0 0 0 0 0 
0 0 0 0 0 0 0 0 0 
0 0 0 0 0 0 0 0 0 
0 0 0 0 0 0 0 0 0 
0 0 0 0 0 0 0 0 0 
0 0 0 0 0 0 0 0 0 
0 0 0 0 0 0 0 0 0 
0 0 0 0 0 0 0 0 0 
0 0 0 0 0 0 0 0 0 
0 0 0 0 0 0 0 0 0 
0 0 0 0 0 0 0 0 0 
0 0 0 0 0 0 0 0 0 
0 0 0 0 0 0 0 0 0 
0 0 0 0 0 0 0 0 0 
0 0 0 0 0 0 0 0 0 
0 0 0 0 0 0 0 0 0 
0 0 0 0 0 0 0 0 0 
0 0 0 0 0 0 0 0 0 
0 0 0 0 0 0 0 0 0 
0 0 0 0 0 0 0 0 0 
0 0 0 0 0 0 0 0 0 
0 0 0 0 0 0 0 0 0 
0 0 0 0 0 0 0 0 0 
0 0 0 0 0 0 0 0 0 
0 0 0 0 0 0 0 0 0 
0 0 0 0 0 0 0 0 0 
0 0 0 0 0 0 0 0 0 
0 0 0 0 0 0 0 0 0 
0 0 0 0 0 0 0 0 0 
0 0 0 0 0 0 0 0 0 
0 0 0 0 0 0 0 0 0 
0 0 0 0 0 0 0 0 0 
0 0 0 0 0 0 0 0 0 
0 0 0 0 0 0 0 0 0 
0 0 0 0 0 0 0 0 0 
0 0 0 0 0 0 0 0 0 
0 0 0 0 0 0 0 0 0 
0 0 0 0 0 0 0 0 0 
0 0 0 0 0 0 0 0 0 
0 0 0 0 0 0 0 0 0 
0 0 0 0 0 0 0 0 0 
0 0 0 0 0 0 0 0 0 
0 0 0 0 0 0 0 0 0 
0 0 0 0 0 0 0 0 0 
0 0 0 0 0 0 0 0 0 
0 0 0 0 0 0 0 0 0 
0 0 0 0 0 0 0 0 0 
0 0 0 0 0 0 0 0 0 
0 0 0 0 0 0 0 0 0 
0 0 0 0 0 0 0 0 0 
0 0 0 0 0 0 0 0 0 
0 0 0 0 0 0 0 0 0 
0 0 0 0 0 0 0 0 0 
0 0 0 0 0 0 0 0 0 
0 0 0 0 0 0 0 0 0 
0 0 0 0 0 0 0 0 0 
0 0 0 0 0 0 0 0 0 
0 0 0 0 0 0 0 0 0 
0 0 0 0 0 0 0 0 0 
0 0 0 
v 3 715 double
0 -1 0 -0.027869684498 -1.0278696845 -0.027869684498 0.027869684498 -1.0278696845 -0.027869684498 
0.027869684498 -0.9721303155 0.027869684498 -0.027869684498 -0.9721303155 -0.027869684498 0.027869684498 -0.9721303155 -0.027869684498 
0 -1 0 0 -1 0 0 -1 0 
0 -1 0 0 -1 0 -0.027869684498 -1.0278696845 0.027869684498 
0.027869684498 -1.0278696845 0.027869684498 -0.027869684498 -0.9721303155 0.027869684498 0.027869684498 -0.9721303155 0.027869684498 
0 -1 0 0 -1 0 0 -1 0 
0 -1 0 0 -1 0 -0.027869684498 -1.0278696845 -0.027869684498 
-0.027869684498 -0.9721303155 -0.027869684498 0.027869684498 -1.0278696845 -0.027869684498 0.027869684498 -0.9721303155 -0.027869684498 
0.027869684498 -0.9721303155 -0.027869684498 0 -1 0 0 -1 0 
0 -1 0 0 -1 0 0 -1 0 
-0.027869684498 -1.0278696845 0.027869684498 -0.027869684498 -0.9721303155 0.027869684498 0.027869684498 -1.0278696845 0.027869684498 
0.027869684498 -0.9721303155 0.027869684498 0 -1 0 0 -1 0 
0 -1 0 0 -1 0 0 -1 0 
0 -1 0 0 -1 0 0 -1 0 
0 -1 0 0 -1 0 0.027869684498 -0.9721303155 0.027869684498 
0.027869684498 -0.9721303155 -0.027869684498 -0.027869684498 -1.0278696845 -0.027869684498 -0.027869684498 -1.0278696845 0.027869684498 
-0.027869684498 -0.9721303155 -0.027869684498 -0.027869684498 -0.9721303155 0.027869684498 0.027869684498 -1.0278696845 -0.027869684498 
0.027869684498 -1.0278696845 0.027869684498 0.027869684498 -0.9721303155 0.027869684498 0 -1 0 
0 -1 0 0 -1 0 0 -1 0 
0 -1 0 0 -1 0 -0.027869684498 -1.0278696845 -0.027869684498 
0.027869684498 -1.0278696845 -0.027869684498 0.027869684498 -0.9721303155 -0.027869684498 -0.027869684498 -0.9721303155 -0.027869684498 
0 -1 0 0 -1 0 0 -1 0 
0 -1 0 0 -1 0 0 -1 0 
-0.027869684498 -1.0278696845 0.027869684498 0.027869684498 -1.0278696845 0.027869684498 -0.027869684498 -1.0278696845 -0.027869684498 
-0.027869684498 -1.0278696845 0.027869684498 -0.027869684498 -0.9721303155 -0.027869684498 -0.027869684498 -0.9721303155 0.027869684498 
0.027869684498 -0.9721303155 0.027869684498 0.027869684498 -1.0278696845 -0.027869684498 0.027869684498 -1.0278696845 0.027869684498 
0.027869684498 -0.9721303155 -0.027869684498 0.027869684498 -0.9721303155 0.027869684498 -0.027869684498 -0.9721303155 0.027869684498 
0 -1 0 0 -1 0 0 -1 0 
0 -1 0 0 -1 0 0 -1 0 
0 -1 0 0 -1 0 0.027869684498 -0.9721303155 -0.027869684498 
0 -1 0 0 -1 0 0 -1 0 
0 -1 0 0 -1 0 0 -1 0 
0.027869684498 -1.0278696845 0.027869684498 0 -1 0 0 -1 0 
0 -1 0 0 -1 0 0.027869684498 -1.0278696845 0.027869684498 
0 -1 0 0 -1 0 0 -1 0 
0 -1 0 0 -1 0 0 -1 0 
0 -1 0 0.027869684498 -1.0278696845 -0.027869684498 0 -1 0 
0 -1 0 0 -1 0 0 -1 0 
0 -1 0 0 -1 0 0 -1 0 
0 -1 0 0 -1 0 0 -1 0 
0 -1 0 0.013578182728 -0.98642181727 0.013578182728 0 -1 0 
0 -1 0 0 -1 0 0 -1 0 
0 -1 0 0 -1 0 0 -1 0 
0 -1 0 0 -1 0 0 -1 0 
-0.027869684498 -1.0278696845 -0.027869684498 -0.027869684498 -1.0278696845 0.027869684498 -0.027869684498 -0.9721303155 -0.027869684498 
-0.027869684498 -0.9721303155 0.027869684498 0.027869684498 -1.0278696845 -0.027869684498 0.027869684498 -1.0278696845 0.027869684498 
0.027869684498 -0.9721303155 -0.027869684498 0.027869684498 -0.9721303155 0.027869684498 -0.027869684498 -1.0278696845 -0.027869684498 
-0.027869684498 -1.0278696845 0.027869684498 -0.027869684498 -0.9721303155 -0.027869684498 -0.027869684498 -0.9721303155 0.027869684498 
0.027869684498 -1.0278696845 -0.027869684498 0.027869684498 -1.0278696845 0.027869684498 0.027869684498 -0.9721303155 -0.027869684498 
0.027869684498 -0.9721303155 0.027869684498 -0.027869684498 -1.0278696845 -0.027869684498 -0.027869684498 -1.0278696845 0.027869684498 
-0.027869684498 -0.9721303155 -0.027869684498 -0.027869684498 -0.9721303155 0.027869684498 0.027869684498 -1.0278696845 -0.027869684498 
-0.027869684498 -1.0278696845 -0.027869684498 -0.027869684498 -1.0278696845 0.027869684498 -0.027869684498 -0.9721303155 -0.027869684498 
-0.027869684498 -0.9721303155 0.027869684498 0.027869684498 -1.0278696845 -0.027869684498 0.027869684498 -1.0278696845 0.027869684498 
0.027869684498 -0.9721303155 -0.027869684498 0.027869684498 -0.9721303155 0.027869684498 -0.027869684498 -1.0278696845 -0.027869684498 
-0.027869684498 -1.0278696845 0.027869684498 -0.027869684498 -0.9721303155 -0.027869684498 -0.027869684498 -0.9721303155 0.027869684498 
0.027869684498 -1.0278696845 -0.027869684498 0.027869684498 -1.0278696845 0.027869684498 0.027869684498 -0.9721303155 -0.027869684498 
0.027869684498 -0.9721303155 0.027869684498 -0.027869684498 -1.0278696845 -0.027869684498 -0.027869684498 -1.0278696845 0.027869684498 
-0.027869684498 -0.9721303155 -0.027869684498 -0.027869684498 -0.9721303155 0.027869684498 0.027869684498 -1.0278696845 -0.027869684498 
0.027869684498 -1.0278696845 0.027869684498 0.027869684498 -0.9721303155 -0.027869684498 0.027869684498 -0.9721303155 0.027869684498 
-0.027869684498 -1.0278696845 -0.027869684498 -0.027869684498 -1.0278696845 0.027869684498 -0.027869684498 -0.9721303155 -0.027869684498 
-0.027869684498 -0.9721303155 0.027869684498 -0.013578182728 -1.0135781827 -0.013578182728 -0.013578182728 -1.0135781827 0.013578182728 
-0.013578182728 -0.98642181727 -0.013578182728 -0.013578182728 -0.98642181727 0.013578182728 0.013578182728 -1.0135781827 -0.013578182728 
0.013578182728 -1.0135781827 0.013578182728 0.013578182728 -0.98642181727 -0.013578182728 0 -1 0 
0.013578182728 -0.98642181727 0.013578182728 0 -1 0 0 -1 0 
0 -1 0 0 -1 0 0 -1 0 
0 -1 0 0 -1 0 0 -1 0 
0 -1 0 0 -1 0 0 -1 0 
0 -1 0 0 -1 0 0 -1 0 
0 -1 0 0 -1 0 0 -1 0 
0 -1 0 0 -1 0 0 -1 0 
0 -1 0 0 -1 0 0 -1 0 
0 -1 0 0 -1 0 0 -1 0 
0 -1 0 0 -1 0 0 -1 0 
0 -1 0 0.027869684498 -0.9721303155 0.027869684498 0 -1 0 
0 -1 0 0 -1 0 0 -1 0 
0 -1 0 0 -1 0 0 -1 0 
0 -1 0 -0.027869684498 -1.0278696845 -0.027869684498 -0.027869684498 -0.9721303155 -0.027869684498 
0.027869684498 -1.0278696845 -0.027869684498 0.027869684498 -0.9721303155 -0.027869684498 0 -1 0 
0 -1 0 0 -1 0 0 -1 0 
0.027869684498 -0.9721303155 0.027869684498 -0.027869684498 -1.0278696845 0.027869684498 -0.027869684498 -0.9721303155 0.027869684498 
0.027869684498 -1.0278696845 0.027869684498 0 -1 0 0 -1 0 
0 -1 0 0 -1 0 0 -1 0 
0 -1 0 0 -1 0 0 -1 0 
0 -1 0 0 -1 0 0 -1 0 
0 -1 0 0 -1 0 0 -1 0 
0 -1 0 0 -1 0 0.013578182728 -0.98642181727 -0.013578182728 
0 -1 0 0 -1 0 0 -1 0 
-0.027869684498 -1.0278696845 -0.027869684498 0.027869684498 -1.0278696845 -0.027869684498 -0.027869684498 -0.9721303155 -0.027869684498 
0.027869684498 -0.9721303155 -0.027869684498 0 -1 0 0 -1 0 
0 -1 0 0 -1 0 -0.027869684498 -1.0278696845 0.027869684498 
0.027869684498 -1.0278696845 0.027869684498 -0.027869684498 -1.0278696845 -0.027869684498 -0.027869684498 -0.9721303155 -0.027869684498 
0.027869684498 -1.0278696845 -0.027869684498 0.027869684498 -0.9721303155 -0.027869684498 -0.027869684498 -0.9721303155 0.027869684498 
0.027869684498 -0.9721303155 0.027869684498 0 -1 0 0 -1 0 
0 -1 0 0 -1 0 0 -1 0 
0 -1 0 0 -1 0 0 -1 0 
0.027869684498 -0.9721303155 0.027869684498 -0.027869684498 -1.0278696845 0.027869684498 -0.027869684498 -0.9721303155 0.027869684498 
0.027869684498 -1.0278696845 0.027869684498 0 -1 0 0 -1 0 
0 -1 0 0 -1 0 0 -1 0 
0 -1 0 0 -1 0 0 -1 0 
0 -1 0 0.027869684498 -0.9721303155 0.027869684498 0 -1 0 
0 -1 0 0 -1 0 0 -1 0 
0 -1 0 -0.027869684498 -1.0278696845 -0.027869684498 -0.027869684498 -1.0278696845 0.027869684498 
0.027869684498 -1.0278696845 -0.027869684498 0.027869684498 -1.0278696845 0.027869684498 -0.027869684498 -0.9721303155 -0.027869684498 
-0.027869684498 -0.9721303155 0.027869684498 0.027869684498 -0.9721303155 0.027869684498 0.027869684498 -0.9721303155 -0.027869684498 
0 -1 0 0 -1 0 0 -1 0 
0 -1 0 0 -1 0 -0.027869684498 -1.0278696845 -0.027869684498 
-0.027869684498 -1.0278696845 0.027869684498 -0.027869684498 -0.9721303155 -0.027869684498 -0.027869684498 -0.9721303155 0.027869684498 
0.027869684498 -1.0278696845 -0.027869684498 0.027869684498 -1.0278696845 0.027869684498 0.027869684498 -0.9721303155 -0.027869684498 
-0.027869684498 -1.0278696845 -0.027869684498 -0.027869684498 -1.0278696845 0.027869684498 -0.027869684498 -0.9721303155 -0.027869684498 
-0.027869684498 -0.9721303155 0.027869684498 0.027869684498 -1.0278696845 -0.027869684498 0.027869684498 -1.0278696845 0.027869684498 
0.027869684498 -0.9721303155 -0.027869684498 -0.013578182728 -1.0135781827 -0.013578182728 -0.013578182728 -1.0135781827 0.013578182728 
-0.013578182728 -0.98642181727 -0.013578182728 -0.013578182728 -0.98642181727 0.013578182728 0.013578182728 -1.0135781827 -0.013578182728 
0.013578182728 -1.0135781827 0.013578182728 0.013578182728 -0.98642181727 -0.013578182728 0.013578182728 -0.98642181727 0.013578182728 
-0.013578182728 -1.0135781827 -0.013578182728 -0.013578182728 -1.0135781827 0.013578182728 -0.013578182728 -0.98642181727 -0.013578182728 
-0.013578182728 -0.98642181727 0.013578182728 0.013578182728 -1.0135781827 -0.013578182728 0.013578182728 -1.0135781827 0.013578182728 
0 -1 0 0 -1 0 0 -1 0 
0 -1 0 0 -1 0 0 -1 0 
0 -1 0 0.013578182728 -0.98642181727 0.013578182728 0 -1 0 
0 -1 0 0 -1 0 0 -1 0 
0 -1 0 0 -1 0 0 -1 0 
0 -1 0 0 -1 0 0 -1 0 
0 -1 0 0.027869684498 -0.9721303155 0.027869684498 0 -1 0 
0 -1 0 0 -1 0 0 -1 0 
0 -1 0 0 -1 0 -0.027869684498 -1.0278696845 -0.027869684498 
-0.027869684498 -0.9721303155 -0.027869684498 0.027869684498 -0.9721303155 -0.027869684498 0.027869684498 -1.0278696845 -0.027869684498 
-0.027869684498 -1.0278696845 -0.027869684498 -0.027869684498 -0.9721303155 -0.027869684498 0.027869684498 -1.0278696845 -0.027869684498 
0.027869684498 -0.9721303155 -0.027869684498 0 -1 0 0 -1 0 
0 -1 0 -0.027869684498 -1.0278696845 0.027869684498 -0.027869684498 -0.9721303155 0.027869684498 
0.027869684498 -0.9721303155 0.027869684498 0.027869684498 -1.0278696845 0.027869684498 -0.027869684498 -1.0278696845 0.027869684498 
-0.027869684498 -0.9721303155 0.027869684498 0.027869684498 -1.0278696845 0.027869684498 0.027869684498 -0.9721303155 0.027869684498 
0 -1 0 0 -1 0 0 -1 0 
0 -1 0 0 -1 0 0 -1 0 
-0.027869684498 -1.0278696845 -0.027869684498 -0.027869684498 -0.9721303155 -0.027869684498 0.027869684498 -1.0278696845 -0.027869684498 
0.027869684498 -0.9721303155 -0.027869684498 -0.027869684498 -1.0278696845 -0.027869684498 -0.027869684498 -1.0278696845 0.027869684498 
0.027869684498 -1.0278696845 -0.027869684498 0.027869684498 -1.0278696845 0.027869684498 -0.027869684498 -0.9721303155 -0.027869684498 
-0.027869684498 -0.9721303155 0.027869684498 0.027869684498 -0.9721303155 -0.027869684498 0.027869684498 -0.9721303155 0.027869684498 
0 -1 0 0 -1 0 0 -1 0 
0 -1 0 0 -1 0 0 -1 0 
0 -1 0 0 -1 0 0 -1 0 
0 -1 0 -0.027869684498 -1.0278696845 0.027869684498 -0.027869684498 -0.9721303155 0.027869684498 
0.027869684498 -1.0278696845 0.027869684498 0.027869684498 -0.9721303155 0.027869684498 -0.027869684498 -1.0278696845 -0.027869684498 
-0.027869684498 -1.0278696845 0.027869684498 -0.027869684498 -0.9721303155 -0.027869684498 -0.027869684498 -0.9721303155 0.027869684498 