# vtk DataFile Version 5.1
Generated by LIGGGHTS
ASCII
DATASET POLYDATA
POINTS 1233 float
-0.136042 0.0558754 -0.143433 -0.139061 0.0694322 -0.143059 -0.104516 0.0884849 -0.144456 
-0.143232 0.0610639 -0.137391 -0.119509 0.0593458 -0.135731 -0.0180469 0.0792912 -0.138633 
-0.013998 0.112568 -0.138065 -0.10406 0.134565 -0.141085 -0.0713509 0.13894 -0.140843 
-0.141908 0.144683 -0.141435 -0.0808276 0.0612627 -0.133298 -0.00192297 0.0645912 -0.13258 
-0.13171 0.0756306 -0.133445 -0.0949275 0.0962774 -0.132284 -0.023069 0.136585 -0.127322 
-0.13647 0.147067 -0.131906 -0.000730003 0.145474 -0.129626 -0.139293 0.0623139 -0.126794 
-0.0393423 0.0784266 -0.127423 -0.021718 0.100571 -0.125653 -0.129822 0.0569872 -0.117143 
-0.118495 0.0554891 -0.1194 -0.143605 0.0746365 -0.116403 -0.141273 0.0926934 -0.113479 
-0.0335166 0.0946733 -0.11592 -0.0655026 0.120694 -0.118736 -0.141004 0.0595234 -0.111276 
-0.0967738 0.0620806 -0.109101 -0.0382536 0.0833009 -0.112104 -0.0579611 0.0855202 -0.106508 
-0.131807 0.0949728 -0.111414 -0.0830319 0.135208 -0.109954 -0.0593221 0.069293 -0.0999434 
-0.0276615 0.061879 -0.0985041 -0.0256533 0.109016 -0.0984314 -0.0751291 0.132308 -0.104535 
-0.0586284 0.14668 -0.104113 -0.144692 0.0722453 -0.0943237 -0.0718336 0.161486 -0.083528 
-0.11833 0.181257 -0.0892114 -0.0422876 0.0576963 -0.0793768 -0.134217 0.0622469 -0.0793476 
-0.0480882 0.082542 -0.0802331 -0.00585363 0.0555579 -0.0679928 -0.113618 0.0746197 -0.0733211 
-0.0042472 0.0805975 -0.0699682 -0.109412 0.0906076 -0.0736963 -0.0375474 0.133479 -0.0715785 
-0.0755069 0.199573 -0.032024 -0.0431569 0.0722246 -0.00454127 -0.128016 0.0658908 -0.00437098 
-0.00152379 0.0573818 -0.0067527 -0.0169179 0.0568816 -0.0660741 -0.0426559 0.102132 -0.0665316 
-0.134135 0.115955 -0.0648864 -0.0266597 0.138625 -0.0682553 -0.0754809 0.199544 -0.0359253 
-0.0794083 0.199543 -0.0320496 -0.0793822 0.199515 -0.0359509 -0.0788542 0.102209 -0.00528509 
-0.0664161 0.0618302 -0.0578542 -0.0961939 0.119175 -0.0552294 -0.00509888 0.129956 -0.0586083 
-0.0701505 0.0611752 -0.0480164 -0.0174429 0.0798221 -0.0469106 -0.121753 0.0759209 -0.0442254 
-0.00523235 0.0818831 -0.0441576 -0.00534557 0.118582 -0.041659 -0.019572 0.0689699 -0.0336459 
-0.0355763 0.0934487 -0.0320212 -0.134648 0.110849 -0.0376642 -0.106452 0.0827963 -0.00734445 
-0.00223291 0.119439 -0.0250627 -0.0267452 0.134354 -0.0306248 -0.053092 0.149258 -0.0279443 
-0.000417982 0.198827 -0.0268775 -0.122223 0.05608 -0.0156987 -0.105654 0.0603607 -0.0219111 
-0.0628838 0.0794662 -0.0212611 -0.0141162 0.0863632 -0.0204556 -0.0178907 0.146079 -0.0167708 
-0.132252 0.151661 -0.0175296 -0.132036 0.0586245 -0.0138052 -0.0382247 0.0646676 -0.00966221 
-0.131814 0.0804391 -0.00858118 -0.0885007 0.0613768 -0.00487635 -0.138173 0.061821 0.00171986 
-0.0300667 0.0551452 0.01007 -0.122167 0.075796 0.0140507 -0.0145372 0.0810031 0.014505 
-0.0107979 0.0931015 0.010269 -0.132587 0.0680889 0.0220522 -0.112879 0.0645471 0.0172048 
-0.0195449 0.0664781 0.0158035 -0.144711 0.0716029 0.0176716 -0.101238 0.0856385 0.0156772 
-0.11248 0.0552459 0.0243076 -0.131201 0.0909486 0.0227708 -0.106155 0.0911472 0.0278004 
-0.102412 0.154797 0.0274078 -0.120378 0.0838647 0.0323155 -0.0419791 0.0977906 0.0299986 
-0.0231822 0.0798656 0.0397955 -0.0127962 0.0816352 0.0438929 -0.0919638 0.0861679 0.0436448 
-0.0883888 0.139264 0.0403271 -0.140219 0.196804 0.0432859 -0.07696 0.0729082 0.0517478 
-0.0534962 0.0746935 0.0482316 -0.140593 0.0792585 0.0457613 -0.122279 0.107716 0.0474105 
-0.00247818 0.122915 0.0501762 -0.0736986 0.132735 0.0491127 -0.144913 0.146894 0.0486924 
-0.110098 0.143673 0.0505757 -0.0331665 0.0608235 0.0535529 -0.0465117 0.0569551 0.0626561 
-0.115778 0.0748364 0.0629862 -0.0508472 0.165836 0.0649442 -0.13965 0.0612077 0.0698287 
-0.00258948 0.0956204 0.0728783 -0.130015 0.13139 0.0746443 -0.077506 0.173673 0.0755677 
-0.0823842 0.0587531 0.0841629 -0.116375 0.0661505 0.0896965 -0.0389437 0.0676314 0.0879495 
-0.0135675 0.0620788 0.0835738 -0.13955 0.0757185 0.083957 -0.0485396 0.0851629 0.0877181 
-0.0173247 0.117246 0.0895233 -0.12263 0.0721958 0.0993262 -0.110099 0.0979501 0.102832 
-0.0307232 0.150927 0.0994006 -0.04867 0.180324 0.100171 -0.0485519 0.0735943 0.110068 
-0.127412 0.114453 0.11324 -0.00419697 0.0911863 0.112688 -0.0676976 0.183644 0.119392 
-0.00598971 0.0559721 0.122309 -0.101591 0.16539 0.125806 -0.12204 0.0604106 0.142308 
-0.0969967 0.0724124 0.142107 -0.110373 0.105558 0.136331 -0.102779 0.11892 0.137634 
-0.0174318 0.0560462 0.000216289 -0.0849649 0.208497 -0.147287 -0.077201 0.208366 -0.14691 
-0.053696 0.221069 -0.145875 -0.0433919 0.221073 -0.145876 -0.0852947 0.229663 -0.147004 
-0.0775605 0.229237 -0.146627 -0.0537055 0.252042 -0.146215 -0.0434013 0.252047 -0.146216 
-0.0843839 0.209668 -0.140308 -0.0765353 0.210094 -0.141263 -0.0536952 0.221239 -0.135571 
-0.0433909 0.221244 -0.135572 -0.0847375 0.231621 -0.141026 -0.0768889 0.232048 -0.141981 
-0.0537046 0.252213 -0.135911 -0.0434004 0.252218 -0.135912 -0.136023 0.272156 -0.140254 
-0.118649 0.272156 -0.140254 -0.136023 0.331712 -0.140254 -0.118649 0.331712 -0.140254 
-0.124311 0.35815 -0.138634 -0.0983561 0.358179 -0.138634 -0.136023 0.272156 -0.12288 
-0.118649 0.272156 -0.12288 -0.136023 0.331712 -0.12288 -0.118649 0.331712 -0.12288 
-0.119726 0.375635 -0.126711 -0.100026 0.375483 -0.126591 -0.0930449 0.229027 -0.114703 
-0.0788635 0.229101 -0.114703 -0.093152 0.273202 -0.114607 -0.0789705 0.273276 -0.114607 
-0.0476766 0.282931 -0.113075 -0.0277083 0.282931 -0.113075 -0.0476766 0.353186 -0.113075 
-0.0277083 0.353186 -0.113075 -0.124311 0.358319 -0.112679 -0.0983559 0.358349 -0.11268 
-0.119527 0.375559 -0.106738 -0.100077 0.37542 -0.106737 -0.0930448 0.22896 -0.100522 
-0.0788634 0.229034 -0.100522 -0.0931518 0.273135 -0.100426 -0.0789705 0.273209 -0.100426 
-0.095729 0.28089 -0.0983932 -0.0767585 0.28089 -0.0983932 -0.0542068 0.303606 -0.0990933 
-0.095729 0.34703 -0.0983932 -0.0767585 0.34703 -0.0983932 -0.0280929 0.213805 -0.0927509 
-0.0193104 0.213813 -0.0927787 -0.0496477 0.219515 -0.098809 -0.0389109 0.218714 -0.0977527 
-0.0281062 0.238393 -0.0923287 -0.0193237 0.238401 -0.0923564 -0.0488877 0.252288 -0.0980619 
-0.038151 0.251487 -0.0970055 -0.0769088 0.261918 -0.0948412 -0.061131 0.261918 -0.0948316 
-0.0476766 0.282931 -0.0931064 -0.0277083 0.282931 -0.0931064 -0.0857147 0.302627 -0.0908929 
-0.0397698 0.295685 -0.0966526 -0.0692568 0.30697 -0.092389 -0.0769091 0.314891 -0.094839 
-0.0476766 0.353186 -0.0931064 -0.0277083 0.353186 -0.0931064 -0.0623322 0.376644 -0.0966686 
-0.0397698 0.376644 -0.0966686 -0.0280551 0.213439 -0.0839689 -0.0192726 0.213448 -0.0839967 
-0.0507138 0.218733 -0.0880723 -0.0399771 0.217932 -0.0870159 -0.0280684 0.238027 -0.0835466 
-0.0192859 0.238036 -0.0835744 -0.0499538 0.251506 -0.0873252 -0.0392171 0.250705 -0.0862687 
-0.0553715 0.279847 -0.0877042 -0.0748051 0.347588 -0.0879156 -0.0928711 0.261973 -0.080745 
-0.0804654 0.262264 -0.0783413 -0.0733466 0.261625 -0.081467 -0.0611406 0.261916 -0.079054 
-0.095729 0.28089 -0.0794227 -0.0767585 0.28089 -0.0794227 -0.126452 0.293128 -0.0818895 
-0.104488 0.293136 -0.082172 -0.0659451 0.292065 -0.0758181 -0.0516 0.302772 -0.0801773 
-0.0265528 0.298158 -0.0775385 -0.00438954 0.29799 -0.0773998 -0.0928711 0.315769 -0.080745 
-0.0768938 0.315769 -0.080745 -0.0611407 0.31489 -0.0790518 -0.0661677 0.340562 -0.081882 
-0.095729 0.34703 -0.0794227 -0.0767585 0.34703 -0.0794227 -0.126462 0.371613 -0.0819159 
-0.104498 0.37162 -0.0821985 -0.0263049 0.377465 -0.0777219 -0.00414167 0.377296 -0.0775833 
-0.119827 0.205684 -0.0703138 -0.119903 0.205424 -0.0744626 -0.124052 0.205198 -0.0743707 
-0.123976 0.20543 -0.0702218 -0.0746866 0.279984 -0.06828 -0.0553171 0.280028 -0.0683346 
-0.0397698 0.295702 -0.0740892 -0.0747506 0.34777 -0.0685461 -0.055381 0.347813 -0.0686007 
-0.0623322 0.37665 -0.0741073 -0.0397698 0.37665 -0.0741073 -0.105099 0.206968 -0.0600389 
-0.109387 0.207044 -0.0645262 -0.10499 0.206959 -0.0644362 -0.109496 0.207053 -0.0601289 
-0.0928711 0.261973 -0.0647677 -0.0768938 0.261973 -0.0647677 -0.092768 0.283017 -0.0608973 
-0.0724007 0.283017 -0.0608973 -0.126169 0.293146 -0.0599258 -0.104205 0.293154 -0.0602084 
-0.0208689 0.287882 -0.0604995 -0.00166283 0.290159 -0.0649768 -0.0645431 0.30273 -0.0610949 
-0.0413822 0.30273 -0.0610949 -0.0928711 0.315769 -0.0647677 -0.0768938 0.315769 -0.0647677 
-0.092768 0.354926 -0.0609132 -0.0724007 0.354926 -0.0609132 -0.126179 0.371631 -0.0599523 
-0.104216 0.371638 -0.0602348 -0.0232367 0.36699 -0.0651338 -0.00167227 0.366997 -0.0650269 
-0.0645431 0.386152 -0.0610949 -0.0413822 0.386152 -0.0610949 -0.0266915 0.298284 -0.0553752 
-0.00688667 0.300386 -0.0598208 -0.0264436 0.37759 -0.0555587 -0.0042804 0.377421 -0.0554201 
-0.112936 0.268149 -0.041287 -0.0957613 0.268149 -0.041287 -0.137467 0.283534 -0.0406767 
-0.117698 0.283534 -0.0406767 -0.092768 0.283036 -0.0405292 -0.0724007 0.283036 -0.0405292 
-0.0233343 0.290186 -0.043519 -0.0017695 0.290193 -0.0434123 -0.0645431 0.30273 -0.0379339 
-0.0413822 0.30273 -0.0379339 -0.112936 0.326883 -0.041287 -0.0957613 0.326883 -0.041287 
-0.137467 0.352962 -0.040676 -0.117698 0.352962 -0.040676 -0.092768 0.354929 -0.0405466 
-0.0724007 0.354929 -0.0405466 -0.0233437 0.367025 -0.0435691 -0.00177893 0.367031 -0.0434624 
-0.0645431 0.386152 -0.0379339 -0.0413822 0.386152 -0.0379339 -0.0306265 0.245614 -0.0377869 
-0.0294896 0.292187 -0.0365167 -0.0267137 0.29379 -0.0308436 -0.0306567 0.244029 -0.0230092 
-0.0569215 0.260682 -0.0278495 -0.0407447 0.260682 -0.0278495 -0.112936 0.268149 -0.0241124 
-0.0957613 0.268149 -0.0241124 -0.0603107 0.265747 -0.0291102 -0.0431361 0.265931 -0.0290787 
-0.0569215 0.315301 -0.0278495 -0.0407447 0.315301 -0.0278495 -0.112936 0.326883 -0.0241124 
-0.0957613 0.326883 -0.0241124 -0.0604806 0.324549 -0.0290788 -0.0433061 0.324597 -0.0291103 
[...]
POINT_DATA 1233
FIELD FieldData 8
id 1 1233 int
3781 3801 3749 3894 3745 3730 3789 3994 3744 
3970 2648 3927 2739 3917 3937 3359 3858 3023 
2901 3952 3738 2755 3785 3823 3296 3981 3024 
3931 3852 3685 3908 3180 3966 3844 3773 3932 
3808 3586 3830 3987 3960 3360 3877 3805 3716 
3943 3135 3903 4943 3786 3971 3779 3961 3242 
3896 3244 4942 4939 4938 2961 3731 3939 3809 
3918 3757 3727 2962 2824 3714 3814 3920 3831 
2749 3879 3873 2750 3885 3853 3938 3787 2484 
3815 3182 3975 3297 3746 3925 3962 2902 3782 
2482 3982 3720 3847 3688 3906 3836 3825 3950 
3988 3803 3954 3940 3587 3775 3686 3728 3911 
3788 3854 3955 3719 3996 3909 2823 3747 3406 
3631 3765 3760 3461 3910 3761 3768 3863 2550 
3871 3864 3968 3325 3721 3941 2509 3997 3136 
3776 3754 3963 3977 3632 3689 3729 3875 3956 
3919 4866 4870 4794 4798 4868 4872 4796 4800 
4867 4871 4795 4799 4869 4865 4797 4793 4442 
4446 4444 4448 4018 4022 4443 4447 4445 4441 
4020 4024 4690 4694 4692 4696 4226 4230 4228 
4232 4019 4023 4021 4017 4691 4695 4693 4689 
4330 4334 4042 4332 4336 4850 4854 4786 4790 
4852 4856 4788 4792 4602 4606 4227 4231 4605 
4046 4608 4604 4229 4225 4044 4048 4851 4855 
4787 4791 4853 4849 4789 4785 4286 4284 4594 
4598 4603 4607 4331 4335 4084 4088 4282 4043 
4058 4062 4596 4600 4601 4288 4333 4329 4086 
4090 4060 4064 4921 4928 4924 4925 4283 4287 
4047 4285 4281 4045 4041 4913 4916 4920 4917 
4595 4599 4194 4198 4085 4089 4138 4142 4026 
4030 4597 4593 4196 4200 4087 4091 4140 4144 
4028 4032 4059 4063 4061 4057 4475 4479 4258 
4262 4195 4199 4139 4143 4027 4031 4477 4481 
4260 4264 4197 4193 4141 4137 4029 4025 4658 
4660 4092 4659 4578 4582 4476 4480 4483 4487 
4580 4584 4478 4482 4485 4474 4094 4259 4263 
4661 4096 4261 4257 4074 4095 4579 4583 4076 
4093 4581 4577 4078 4080 4075 4073 4927 4944 
4914 4915 4941 4940 4919 4918 4937 4922 4923 
4926 4077 4082 4079 4083 4081 4362 4366 4364 
4368 4674 4678 4484 4488 4346 4350 4162 4166 
4676 4680 4486 4473 4348 4352 4164 4168 4363 
4367 4365 4361 4012 4634 4638 4675 4679 4347 
4314 4351 4636 4318 4640 4677 4673 4349 4316 
4345 4320 4354 4266 4270 4146 4150 4163 4167 
4034 4038 4268 4356 4272 4148 4152 4165 4161 
4008 4036 4040 4730 4734 4635 4639 4498 4732 
4315 4736 4637 4355 4633 4269 4317 4313 4004 
4068 4072 4002 4319 4115 4154 4119 4158 4035 
4500 4357 4156 4160 4117 4121 4006 4770 4774 
4731 4735 4776 4772 4499 4733 4729 4234 4238 
4267 4210 4271 4214 4147 4127 4151 4066 4070 
4071 4039 4236 4265 4240 4001 4212 4216 4149 
4005 4145 4125 4114 4037 4033 4771 4775 4769 
4773 4530 4534 4387 4391 4159 4116 4120 4067 
4123 4389 4536 4501 4393 4118 4122 4069 4065 
4450 4454 4586 4590 4418 4422 4211 4215 4155 
4452 4456 4124 4532 4128 4420 4424 4213 4209 
4157 4153 4003 4007 4531 4535 4235 4388 4392 
4290 4239 4178 4182 4588 4592 4533 4529 4394 
4292 4237 4296 4233 4180 4184 4126 4113 4591 
4338 4342 4294 4340 4344 4451 4455 4587 4555 
4559 4419 4423 4395 4399 4453 4449 4390 4589 
4585 4557 4561 4397 4386 4421 4417 4611 4615 
4506 4510 4291 4295 4179 4183 4613 4508 4512 
4293 4289 4181 4177 4623 4738 4722 4726 4742 
4556 4560 4724 4740 4744 4339 4400 4343 4610 
4728 4617 4396 4050 4558 4562 4398 4385 4341 
4337 4052 4619 4826 4830 4814 4621 4828 4832 
4612 4616 4507 4511 4725 4614 4618 4509 4505 
4831 4874 4878 4827 4810 4876 4624 4880 4739 
4723 4727 4743 4812 4816 4567 4609 4741 4737 
4721 4620 4875 4879 4811 4877 4815 4873 4825 
4622 4829 4813 4809 4564 4568 4563 4051 4553 
4566 4565 4554 4055 4053 3899 3849 3161 3440 
3818 3838 3811 3876 3405 3972 3934 3755 3945 
3762 3860 3784 3726 3985 3900 3778 3957 3025 
3717 3964 3978 2591 2481 3741 3922 3856 3796 
2927 2989 3711 3867 3806 3888 3869 3723 3441 
2867 3737 2483 3819 3324 3850 3614 3712 3797 
3881 3851 3766 3162 3665 3812 3208 3840 2751 
3691 4951 3770 3758 3890 3771 2748 3914 3889 
3991 2690 3995 3791 3946 3732 3442 3799 3777 
3870 3668 3764 3263 3828 3774 3742 4946 4947 
4950 3385 3820 3718 3763 3999 3913 3692 3915 
3916 3923 2963 2790 3993 3979 3974 3998 3667 
3924 3613 2928 3772 3947 3750 3810 3739 3790 
3715 3857 3835 3892 3751 3298 3935 3846 3443 
3861 3733 3958 3833 3800 3936 3926 2753 3872 
3967 3798 3725 3902 3843 3326 2868 3792 3883 
3930 3444 3969 3693 4935 3848 4931 4898 4902 
4900 4904 4714 4718 4716 4720 4899 4903 4901 
4897 4715 4719 4717 4713 4626 4630 4628 4632 
4834 4838 4836 4840 4515 4519 4517 4521 4835 
4839 4837 4833 4627 4631 4402 4406 4629 4625 
4404 4408 4516 4520 4518 4522 4523 4527 4525 
4514 4698 4702 4403 4407 4700 4704 4405 4401 
4426 4430 4524 4528 4697 4526 4513 4428 4432 
4754 4758 4699 4703 4756 4760 4701 4755 4759 
4427 4490 4431 4494 4370 4757 4753 4374 4298 
4302 4492 4496 4429 4425 4372 4376 4300 4304 
4890 4894 4892 4896 4762 4766 4764 4768 4491 
4495 4202 4206 4493 4489 4204 4208 4891 4895 
4893 4889 4767 4686 4682 4546 4550 4458 4462 
4371 4375 4688 4299 4684 4548 4552 4460 4464 
4373 4369 4763 4761 4765 4303 4301 4297 4662 
4683 4687 4666 4670 4547 4551 4459 4463 4203 
4685 4664 4207 4681 4668 4672 4549 4545 4461 
4457 4205 4201 4858 4862 4860 4864 4663 4859 
4863 4861 4857 4667 4671 4642 4646 4657 4669 
4665 4644 4648 4643 4647 4645 4641 4945 4952 
4948 4949 4882 4883 4886 4887 4884 4885 4888 
4881 4802 4806 4804 4808 4650 4654 4652 4656 
4803 4807 4805 4801 4010 4014 4746 4750 4651 
4655 4748 4752 4306 4310 4653 4649 4308 4312 
4016 4378 4382 4380 4384 4747 4751 4706 4710 
4749 4745 4358 4540 4307 4311 4708 4712 4360 
4309 4305 4192 4379 4383 4502 4190 4186 4377 
4381 4188 4013 4009 4707 4711 4243 4247 4705 
4103 4709 4504 4185 4353 4245 4249 4101 4105 
4011 4015 4538 4542 4503 4322 4326 4359 4544 
4099 4324 4328 4189 4187 4191 4244 4248 4497 
4246 4250 4539 4543 4410 4414 4541 4537 4100 
4104 4412 4416 4321 4325 4102 4106 4906 4910 
4912 4908 4434 4438 4327 4323 4436 4440 4911 
4907 4905 4909 4411 4415 4413 4409 4255 4130 
4134 4433 4253 4242 4132 4136 4818 4822 4820 
4824 4435 4439 4218 4222 4170 4174 4251 4437 
4220 4224 4172 4176 4819 4823 4782 4821 4817 
4784 4466 4470 4252 4256 4054 4131 4135 4468 
4472 4254 4241 4133 4129 4056 4842 4846 4778 
4844 4848 4780 4274 4278 4570 4574 4219 4223 
4107 4111 4572 4576 4276 4280 4221 4217 4109 
4098 4843 4847 4929 4936 4932 4933 4779 4783 
4845 4841 4781 4777 4171 4175 4173 4169 4275 
4279 4467 4471 4571 4575 4108 4112 4277 4573 
4569 4273 4469 4465 4110 4097 4049 4930 4934 

type 1 1233 int
2 2 2 2 2 2 2 2 2 
2 2 2 2 2 2 2 2 2 
2 2 2 2 2 2 2 2 2 
2 2 2 2 2 2 2 2 2 
2 2 2 2 2 2 2 2 2 
2 2 2 2 2 2 2 2 2 
2 2 2 2 2 2 2 2 2 
2 2 2 2 2 2 2 2 2 
2 2 2 2 2 2 2 2 2 
2 2 2 2 2 2 2 2 2 
2 2 2 2 2 2 2 2 2 
2 2 2 2 2 2 2 2 2 
2 2 2 2 2 2 2 2 2 
2 2 2 2 2 2 2 2 2 
2 2 2 2 2 2 2 2 2 
2 2 2 2 2 2 2 2 2 
2 2 2 2 2 2 2 2 2 
2 2 2 2 2 2 2 2 2 
2 2 2 2 2 2 2 2 2 
2 2 2 2 2 2 2 2 2 
2 2 2 2 2 2 2 2 2 
2 2 2 2 2 2 2 2 2 
2 2 2 2 2 2 2 2 2 
2 2 2 2 2 2 2 2 2 
2 2 2 2 2 2 2 2 2 
2 2 2 2 2 2 2 2 2 
2 2 2 2 2 2 2 2 2 
2 2 2 2 2 2 2 2 2 
2 2 2 2 2 2 2 2 2 
2 2 2 2 2 2 2 2 2 
2 2 2 2 2 2 2 2 2 
2 2 2 2 2 2 2 2 2 
2 2 2 2 2 2 2 2 2 
2 2 2 2 2 2 2 2 2 
2 2 2 2 2 2 2 2 2 
2 2 2 2 2 2 2 2 2 
2 2 2 2 2 2 2 2 2 
2 2 2 2 2 2 2 2 2 
2 2 2 2 2 2 2 2 2 
2 2 2 2 2 2 2 2 2 
2 2 2 2 2 2 2 2 2 
2 2 2 2 2 2 2 2 2 
2 2 2 2 2 2 2 2 2 
2 2 2 2 2 2 2 2 2 
2 2 2 2 2 2 2 2 2 
2 2 2 2 2 2 2 2 2 
2 2 2 2 2 2 2 2 2 
2 2 2 2 2 2 2 2 2 
2 2 2 2 2 2 2 2 2 
2 2 2 2 2 2 2 2 2 
2 2 2 2 2 2 2 2 2 
2 2 2 2 2 2 2 2 2 
2 2 2 2 2 2 2 2 2 
2 2 2 2 2 2 2 2 2 
2 2 2 2 2 2 2 2 2 
2 2 2 2 2 2 2 2 2 
2 2 2 2 2 2 2 2 2 
2 2 2 2 2 2 2 2 2 
2 2 2 2 2 2 2 2 2 
2 2 2 2 2 2 2 2 2 
2 2 2 2 2 2 2 2 2 
2 2 2 2 2 2 2 2 2 
2 2 2 2 2 2 2 2 2 
2 2 2 2 2 2 2 2 2 
2 2 2 2 2 2 2 2 2 
2 2 2 2 2 2 2 2 2 
2 2 2 2 2 2 2 2 2 
2 2 2 2 2 2 2 2 2 
2 2 2 2 2 2 2 2 2 
2 2 2 2 2 2 2 2 2 
2 2 2 2 2 2 2 2 2 
2 2 2 2 2 2 2 2 2 
2 2 2 2 2 2 2 2 2 
2 2 2 2 2 2 2 2 2 
2 2 2 2 2 2 2 2 2 
2 2 2 2 2 2 2 2 2 
2 2 2 2 2 2 2 2 2 
2 2 2 2 2 2 2 2 2 
2 2 2 2 2 2 2 2 2 
2 2 2 2 2 2 2 2 2 
2 2 2 2 2 2 2 2 2 
2 2 2 2 2 2 2 2 2 
2 2 2 2 2 2 2 2 2 
2 2 2 2 2 2 2 2 2 
2 2 2 2 2 2 2 2 2 
2 2 2 2 2 2 2 2 2 
2 2 2 2 2 2 2 2 2 
2 2 2 2 2 2 2 2 2 
2 2 2 2 2 2 2 2 2 
2 2 2 2 2 2 2 2 2 
2 2 2 2 2 2 2 2 2 
2 2 2 2 2 2 2 2 2 
2 2 2 2 2 2 2 2 2 
2 2 2 2 2 2 2 2 2 
2 2 2 2 2 2 2 2 2 
2 2 2 2 2 2 2 2 2 
2 2 2 2 2 2 2 2 2 
2 2 2 2 2 2 2 2 2 
2 2 2 2 2 2 2 2 2 
2 2 2 2 2 2 2 2 2 
2 2 2 2 2 2 2 2 2 
2 2 2 2 2 2 2 2 2 
2 2 2 2 2 2 2 2 2 
2 2 2 2 2 2 2 2 2 
2 2 2 2 2 2 2 2 2 
2 2 2 2 2 2 2 2 2 
2 2 2 2 2 2 2 2 2 
2 2 2 2 2 2 2 2 2 
2 2 2 2 2 2 2 2 2 
2 2 2 2 2 2 2 2 2 
2 2 2 2 2 2 2 2 2 
2 2 2 2 2 2 2 2 2 
2 2 2 2 2 2 2 2 2 
2 2 2 2 2 2 2 2 2 
2 2 2 2 2 2 2 2 2 
2 2 2 2 2 2 2 2 2 
2 2 2 2 2 2 2 2 2 
2 2 2 2 2 2 2 2 2 
2 2 2 2 2 2 2 2 2 
2 2 2 2 2 2 2 2 2 
2 2 2 2 2 2 2 2 2 
2 2 2 2 2 2 2 2 2 
2 2 2 2 2 2 2 2 2 
2 2 2 2 2 2 2 2 2 
2 2 2 2 2 2 2 2 2 
2 2 2 2 2 2 2 2 2 
2 2 2 2 2 2 2 2 2 
2 2 2 2 2 2 2 2 2 
2 2 2 2 2 2 2 2 2 
2 2 2 2 2 2 2 2 2 
2 2 2 2 2 2 2 2 2 
2 2 2 2 2 2 2 2 2 
2 2 2 2 2 2 2 2 2 
2 2 2 2 2 2 2 2 2 
2 2 2 2 2 2 2 2 2 
2 2 2 2 2 2 2 2 2 
2 2 2 2 2 2 2 2 2 

i 3 1233 int
0 0 0 0 0 0 0 0 0 
0 0 0 0 0 0 0 0 0 
0 0 0 0 0 0 0 0 0 
0 0 0 0 0 0 0 0 0 
0 0 0 0 0 0 0 0 0 
0 0 0 0 0 0 0 0 0 
0 0 0 0 0 0 0 0 0 
0 0 0 0 0 0 0 0 0 
0 0 0 0 0 0 0 0 0 
0 0 0 0 0 0 0 0 0 
0 0 0 0 0 0 0 0 0 
0 0 0 0 0 0 0 0 0 
0 0 0 0 0 0 0 0 0 
0 0 0 0 0 0 0 0 0 
0 0 0 0 0 0 0 0 0 
0 0 0 0 0 0 0 0 0 
0 0 0 0 0 0 0 0 0 
0 0 0 0 0 0 0 0 0 
0 0 0 0 0 0 0 0 0 
0 0 0 0 0 0 0 0 0 
0 0 0 0 0 0 0 0 0 
0 0 0 0 0 0 0 0 0 
0 0 0 0 0 0 0 0 0 
0 0 0 0 0 0 0 0 0 
0 0 0 0 0 0 0 0 0 
0 0 0 0 0 0 0 0 0 
0 0 0 0 0 0 0 0 0 
0 0 0 0 0 0 0 0 0 
0 0 0 0 0 0 0 0 0 
0 0 0 0 0 0 0 0 0 
0 0 0 0 0 0 0 0 0 
0 0 0 0 0 0 0 0 0 
0 0 0 0 0 0 0 0 0 
0 0 0 0 0 0 0 0 0 
0 0 0 0 0 0 0 0 0 
0 0 0 0 0 0 0 0 0 
0 0 0 0 0 0 0 0 0 
0 0 0 0 0 0 0 0 0 
0 0 0 0 0 0 0 0 0 
0 0 0 0 0 0 0 0 0 
0 0 0 0 0 0 0 0 0 
0 0 0 0 0 0 0 0 0 
0 0 0 0 0 0 0 0 0 
0 0 0 0 0 0 0 0 0 
0 0 0 0 0 0 0 0 0 
0 0 0 0 0 0 0 0 0 
0 0 0 0 0 0 0 0 0 
0 0 0 0 0 0 0 0 0 
0 0 0 0 0 0 0 0 0 
0 0 0 0 0 0 0 0 0 
0 0 0 0 0 0 0 0 0 
0 0 0 0 0 0 0 0 0 
0 0 0 0 0 0 0 0 0 
0 0 0 0 0 0 0 0 0 
0 0 0 0 0 0 0 0 0 
0 0 0 0 0 0 0 0 0 
0 0 0 0 0 0 0 0 0 
0 0 0 0 0 0 0 0 0 
0 0 0 0 0 0 0 0 0 
0 0 0 0 0 0 0 0 0 
0 0 0 0 0 0 0 0 0 
0 0 0 0 0 0 0 0 0 
0 0 0 0 0 0 0 0 0 
0 0 0 0 0 0 0 0 0 
0 0 0 0 0 0 0 0 0 
0 0 0 0 0 0 0 0 0 
0 0 0 0 0 0 0 0 0 
0 0 0 0 0 0 0 0 0 
0 0 0 0 0 0 0 0 0 
0 0 0 0 0 0 0 0 0 
0 0 0 0 0 0 0 0 0 
0 0 0 0 0 0 0 0 0 
0 0 0 0 0 0 0 0 0 
0 0 0 0 0 0 0 0 0 
0 0 0 0 0 0 0 0 0 
0 0 0 0 0 0 0 0 0 
0 0 0 0 0 0 0 0 0 
0 0 0 0 0 0 0 0 0 
0 0 0 0 0 0 0 0 0 
0 0 0 0 0 0 0 0 0 
0 0 0 0 0 0 0 0 0 
0 0 0 0 0 0 0 0 0 
0 0 0 0 0 0 0 0 0 
0 0 0 0 0 0 0 0 0 
0 0 0 0 0 0 0 0 0 
0 0 0 0 0 0 0 0 0 
0 0 0 0 0 0 0 0 0 
0 0 0 0 0 0 0 0 0 
0 0 0 0 0 0 0 0 0 
0 0 0 0 0 0 0 0 0 
0 0 0 0 0 0 0 0 0 
0 0 0 0 0 0 0 0 0 
0 0 0 0 0 0 0 0 0 
0 0 0 0 0 0 0 0 0 
0 0 0 0 0 0 0 0 0 
0 0 0 0 0 0 0 0 0 
0 0 0 0 0 0 0 0 0 
0 0 0 0 0 0 0 0 0 
0 0 0 0 0 0 0 0 0 
0 0 0 0 0 0 0 0 0 
0 0 0 0 0 0 0 0 0 
0 0 0 0 0 0 0 0 0 
0 0 0 0 0 0 0 0 0 
0 0 0 0 0 0 0 0 0 
0 0 0 0 0 0 0 0 0 
0 0 0 0 0 0 0 0 0 
0 0 0 0 0 0 0 0 0 
0 0 0 0 0 0 0 0 0 
0 0 0 0 0 0 0 0 0 
0 0 0 0 0 0 0 0 0 
0 0 0 0 0 0 0 0 0 
0 0 0 0 0 0 0 0 0 
0 0 0 0 0 0 0 0 0 
0 0 0 0 0 0 0 0 0 
0 0 0 0 0 0 0 0 0 
0 0 0 0 0 0 0 0 0 
0 0 0 0 0 0 0 0 0 
0 0 0 0 0 0 0 0 0 
0 0 0 0 0 0 0 0 0 
0 0 0 0 0 0 0 0 0 
0 0 0 0 0 0 0 0 0 
0 0 0 0 0 0 0 0 0 
0 0 0 0 0 0 0 0 0 
0 0 0 0 0 0 0 0 0 
0 0 0 0 0 0 0 0 0 
0 0 0 0 0 0 0 0 0 
0 0 0 0 0 0 0 0 0 
0 0 0 0 0 0 0 0 0 
0 0 0 0 0 0 0 0 0 
0 0 0 0 0 0 0 0 0 
0 0 0 0 0 0 0 0 0 
0 0 0 0 0 0 0 0 0 
0 0 0 0 0 0 0 0 0 
0 0 0 0 0 0 0 0 0 
0 0 0 0 0 0 0 0 0 
0 0 0 0 0 0 0 0 0 
0 0 0 0 0 0 0 0 0 
0 0 0 0 0 0 0 0 0 
0 0 0 0 0 0 0 0 0 
0 0 0 0 0 0 0 0 0 
0 0 0 0 0 0 0 0 0 
0 0 0 0 0 0 0 0 0 
0 0 0 0 0 0 0 0 0 
0 0 0 0 0 0 0 0 0 
0 0 0 0 0 0 0 0 0 
0 0 0 0 0 0 0 0 0 
0 0 0 0 0 0 0 0 0 
0 0 0 0 0 0 0 0 0 
0 0 0 0 0 0 0 0 0 
0 0 0 0 0 0 0 0 0 
0 0 0 0 0 0 0 0 0 
0 0 0 0 0 0 0 0 0 
0 0 0 0 0 0 0 0 0 
0 0 0 0 0 0 0 0 0 
0 0 0 0 0 0 0 0 0 
0 0 0 0 0 0 0 0 0 
0 0 0 0 0 0 0 0 0 
0 0 0 0 0 0 0 0 0 
0 0 0 0 0 0 0 0 0 
0 0 0 0 0 0 0 0 0 
0 0 0 0 0 0 0 0 0 
0 0 0 0 0 0 0 0 0 
0 0 0 0 0 0 0 0 0 
0 0 0 0 0 0 0 0 0 
0 0 0 0 0 0 0 0 0 
0 0 0 0 0 0 0 0 0 
0 0 0 0 0 0 0 0 0 
0 0 0 0 0 0 0 0 0 
0 0 0 0 0 0 0 0 0 
0 0 0 0 0 0 0 0 0 
0 0 0 0 0 0 0 0 0 
0 0 0 0 0 0 0 0 0 
0 0 0 0 0 0 0 0 0 
0 0 0 0 0 0 0 0 0 
0 0 0 0 0 0 0 0 0 
0 0 0 0 0 0 0 0 0 
0 0 0 0 0 0 0 0 0 
0 0 0 0 0 0 0 0 0 
0 0 0 0 0 0 0 0 0 
0 0 0 0 0 0 0 0 0 
0 0 0 0 0 0 0 0 0 
0 0 0 0 0 0 0 0 0 
0 0 0 0 0 0 0 0 0 
0 0 0 0 0 0 0 0 0 
0 0 0 0 0 0 0 0 0 
0 0 0 0 0 0 0 0 0 
0 0 0 0 0 0 0 0 0 
0 0 0 0 0 0 0 0 0 
0 0 0 0 0 0 0 0 0 
0 0 0 0 0 0 0 0 0 
0 0 0 0 0 0 0 0 0 
0 0 0 0 0 0 0 0 0 
0 0 0 0 0 0 0 0 0 
0 0 0 0 0 0 0 0 0 
0 0 0 0 0 0 0 0 0 
0 0 0 0 0 0 0 0 0 
0 0 0 0 0 0 0 0 0 
0 0 0 0 0 0 0 0 0 
0 0 0 0 0 0 0 0 0 
0 0 0 0 0 0 0 0 0 
0 0 0 0 0 0 0 0 0 
0 0 0 0 0 0 0 0 0 
0 0 0 0 0 0 0 0 0 
0 0 0 0 0 0 0 0 0 
0 0 0 0 0 0 0 0 0 
0 0 0 0 0 0 0 0 0 
0 0 0 0 0 0 0 0 0 
0 0 0 0 0 0 0 0 0 
0 0 0 0 0 0 0 0 0 
0 0 0 0 0 0 0 0 0 
0 0 0 0 0 0 0 0 0 
0 0 0 0 0 0 0 0 0 
0 0 0 0 0 0 0 0 0 
0 0 0 0 0 0 0 0 0 
0 0 0 0 0 0 0 0 0 
0 0 0 0 0 0 0 0 0 
0 0 0 0 0 0 0 0 0 
0 0 0 0 0 0 0 0 0 
0 0 0 0 0 0 0 0 0 
0 0 0 0 0 0 0 0 0 
0 0 0 0 0 0 0 0 0 
0 0 0 0 0 0 0 0 0 
0 0 0 0 0 0 0 0 0 
0 0 0 0 0 0 0 0 0 
0 0 0 0 0 0 0 0 0 
0 0 0 0 0 0 0 0 0 
0 0 0 0 0 0 0 0 0 
0 0 0 0 0 0 0 0 0 
0 0 0 0 0 0 0 0 0 
0 0 0 0 0 0 0 0 0 
0 0 0 0 0 0 0 0 0 
0 0 0 0 0 0 0 0 0 
0 0 0 0 0 0 0 0 0 
0 0 0 0 0 0 0 0 0 
0 0 0 0 0 0 0 0 0 
0 0 0 0 0 0 0 0 0 
0 0 0 0 0 0 0 0 0 
0 0 0 0 0 0 0 0 0 
0 0 0 0 0 0 0 0 0 
0 0 0 0 0 0 0 0 0 
0 0 0 0 0 0 0 0 0 
0 0 0 0 0 0 0 0 0 
0 0 0 0 0 0 0 0 0 
0 0 0 0 0 0 0 0 0 
0 0 0 0 0 0 0 0 0 
0 0 0 0 0 0 0 0 0 
0 0 0 0 0 0 0 0 0 
0 0 0 0 0 0 0 0 0 
0 0 0 0 0 0 0 0 0 
0 0 0 0 0 0 0 0 0 
0 0 0 0 0 0 0 0 0 
0 0 0 0 0 0 0 0 0 
0 0 0 0 0 0 0 0 0 
0 0 0 0 0 0 0 0 0 
0 0 0 0 0 0 0 0 0 
0 0 0 0 0 0 0 0 0 
0 0 0 0 0 0 0 0 0 
0 0 0 0 0 0 0 0 0 
0 0 0 0 0 0 0 0 0 
0 0 0 0 0 0 0 0 0 
0 0 0 0 0 0 0 0 0 
0 0 0 0 0 0 0 0 0 
0 0 0 0 0 0 0 0 0 
0 0 0 0 0 0 0 0 0 
0 0 0 0 0 0 0 0 0 
0 0 0 0 0 0 0 0 0 
0 0 0 0 0 0 0 0 0 
0 0 0 0 0 0 0 0 0 
0 0 0 0 0 0 0 0 0 
0 0 0 0 0 0 0 0 0 
0 0 0 0 0 0 0 0 0 
0 0 0 0 0 0 0 0 0 
0 0 0 0 0 0 0 0 0 
0 0 0 0 0 0 0 0 0 
0 0 0 0 0 0 0 0 0 
0 0 0 0 0 0 0 0 0 
0 0 0 0 0 0 0 0 0 
0 0 0 0 0 0 0 0 0 
0 0 0 0 0 0 0 0 0 
0 0 0 0 0 0 0 0 0 
0 0 0 0 0 0 0 0 0 
0 0 0 0 0 0 0 0 0 
0 0 0 0 0 0 0 0 0 
0 0 0 0 0 0 0 0 0 
0 0 0 0 0 0 0 0 0 
0 0 0 0 0 0 0 0 0 
0 0 0 0 0 0 0 0 0 
0 0 0 0 0 0 0 0 0 
0 0 0 0 0 0 0 0 0 
0 0 0 0 0 0 0 0 0 
0 0 0 0 0 0 0 0 0 
0 0 0 0 0 0 0 0 0 
0 0 0 0 0 0 0 0 0 
0 0 0 0 0 0 0 0 0 
0 0 0 0 0 0 0 0 0 
0 0 0 0 0 0 0 0 0 
0 0 0 0 0 0 0 0 0 
0 0 0 0 0 0 0 0 0 
0 0 0 0 0 0 0 0 0 
0 0 0 0 0 0 0 0 0 
0 0 0 0 0 0 0 0 0 
0 0 0 0 0 0 0 0 0 
0 0 0 0 0 0 0 0 0 
0 0 0 0 0 0 0 0 0 
0 0 0 0 0 0 0 0 0 
0 0 0 0 0 0 0 0 0 
0 0 0 0 0 0 0 0 0 
0 0 0 0 0 0 0 0 0 
0 0 0 0 0 0 0 0 0 
0 0 0 0 0 0 0 0 0 
0 0 0 0 0 0 0 0 0 
0 0 0 0 0 0 0 0 0 
0 0 0 0 0 0 0 0 0 
0 0 0 0 0 0 0 0 0 
0 0 0 0 0 0 0 0 0 
0 0 0 0 0 0 0 0 0 
0 0 0 0 0 0 0 0 0 
0 0 0 0 0 0 0 0 0 
0 0 0 0 0 0 0 0 0 
0 0 0 0 0 0 0 0 0 
0 0 0 0 0 0 0 0 0 
0 0 0 0 0 0 0 0 0 
0 0 0 0 0 0 0 0 0 
0 0 0 0 0 0 0 0 0 
0 0 0 0 0 0 0 0 0 
0 0 0 0 0 0 0 0 0 
0 0 0 0 0 0 0 0 0 
0 0 0 0 0 0 0 0 0 
0 0 0 0 0 0 0 0 0 
0 0 0 0 0 0 0 0 0 
0 0 0 0 0 0 0 0 0 
0 0 0 0 0 0 0 0 0 
0 0 0 0 0 0 0 0 0 
0 0 0 0 0 0 0 0 0 
0 0 0 0 0 0 0 0 0 
0 0 0 0 0 0 0 0 0 
0 0 0 0 0 0 0 0 0 
0 0 0 0 0 0 0 0 0 
0 0 0 0 0 0 0 0 0 
0 0 0 0 0 0 0 0 0 
0 0 0 0 0 0 0 0 0 
0 0 0 0 0 0 0 0 0 
0 0 0 0 0 0 0 0 0 
0 0 0 0 0 0 0 0 0 
0 0 0 0 0 0 0 0 0 
0 0 0 0 0 0 0 0 0 
0 0 0 0 0 0 0 0 0 
0 0 0 0 0 0 0 0 0 
0 0 0 0 0 0 0 0 0 
0 0 0 0 0 0 0 0 0 
0 0 0 0 0 0 0 0 0 
0 0 0 0 0 0 0 0 0 
0 0 0 0 0 0 0 0 0 
0 0 0 0 0 0 0 0 0 
0 0 0 0 0 0 0 0 0 
0 0 0 0 0 0 0 0 0 
0 0 0 0 0 0 0 0 0 
0 0 0 0 0 0 0 0 0 
0 0 0 0 0 0 0 0 0 
0 0 0 0 0 0 0 0 0 
0 0 0 0 0 0 0 0 0 
0 0 0 0 0 0 0 0 0 
0 0 0 0 0 0 0 0 0 
0 0 0 0 0 0 0 0 0 
0 0 0 0 0 0 0 0 0 
0 0 0 0 0 0 0 0 0 
0 0 0 0 0 0 0 0 0 
0 0 0 0 0 0 0 0 0 
0 0 0 0 0 0 0 0 0 
0 0 0 0 0 0 0 0 0 
0 0 0 0 0 0 0 0 0 
0 0 0 0 0 0 0 0 0 
0 0 0 0 0 0 0 0 0 
0 0 0 0 0 0 0 0 0 
0 0 0 0 0 0 0 0 0 
0 0 0 0 0 0 0 0 0 
0 0 0 0 0 0 0 0 0 
0 0 0 0 0 0 0 0 0 
0 0 0 0 0 0 0 0 0 
0 0 0 0 0 0 0 0 0 
0 0 0 0 0 0 0 0 0 
0 0 0 0 0 0 0 0 0 
0 0 0 0 0 0 0 0 0 
0 0 0 0 0 0 0 0 0 
0 0 0 0 0 0 0 0 0 
0 0 0 0 0 0 0 0 0 
0 0 0 0 0 0 0 0 0 
0 0 0 0 0 0 0 0 0 
0 0 0 0 0 0 0 0 0 
0 0 0 0 0 0 0 0 0 
0 0 0 0 0 0 0 0 0 
0 0 0 0 0 0 0 0 0 
0 0 0 0 0 0 0 0 0 
0 0 0 0 0 0 0 0 0 
0 0 0 0 0 0 0 0 0 
0 0 0 0 0 0 0 0 0 
0 0 0 0 0 0 0 0 0 
0 0 0 0 0 0 0 0 0 
0 0 0 0 0 0 0 0 0 
0 0 0 0 0 0 0 0 0 
0 0 0 0 0 0 0 0 0 
0 0 0 0 0 0 0 0 0 
0 0 0 0 0 0 0 0 0 
0 0 0 0 0 0 0 0 0 
0 0 0 0 0 0 0 0 0 
0 0 0 0 0 0 0 0 0 
0 0 0 0 0 0 0 0 0 
0 0 0 0 0 0 0 0 0 
0 0 0 0 0 0 0 0 0 
0 0 0 0 0 0 0 0 0 
0 0 0 0 0 0 0 0 0 

v 3 1233 double
0.0080156891962 -0.0015029605931 0.004447886628 0.010048934566 -0.00070430313784 0.0034683114765 -0.15472652587 0.054371164332 0.017807489663 
0.0015701205898 -4.843480566e-05 -0.032346434743 -0.0056303209371 0.0085283445581 0.016039859049 -0.029080006669 0.04353332093 0.035337047209 
-0.084222972431 0.081829535961 -0.0015657430505 -0.015970077835 0.15166809512 0.0078683031147 0.0084999301845 0.1323890659 0.0081926522313 
0.053223610559 0.075188324127 0.0077208849171 -0.027173646627 0.011902077028 0.021408443641 -0.01040054753 0.0058004044742 0.04555054737 
0.0086390268809 0.038845535794 -0.0015567670795 -0.078830096885 0.05744859893 0.00019912973901 0.00042695319134 0.13846042764 0.029105660503 
-0.097613623005 0.14261836488 -0.069878233524 -0.015444081516 0.16804910789 -0.083079636091 0.056732275107 -0.039185307936 -0.0066811744503 
0.019798951085 0.040401127349 0.0076420378047 -0.073359751146 0.048740936439 0.033533506534 0.00030317957686 0.049567823366 -0.018354212932 
-0.017899220674 0.018956035487 -0.014433201323 0.060759685238 0.03755201171 -0.010385692456 -0.01352236633 0.0026700859087 0.015127480601 
0.012718550083 0.067616469755 0.01425317236 0.096087284017 0.12261288527 -0.004294039915 -0.040629181533 0.011950981917 0.025322700445 
-0.055110835015 0.016838623604 0.044337729087 -0.024108631974 0.052866387327 -0.0092589620461 0.017418324533 0.057616216922 -0.030352324845 
-0.024239041008 0.063817658031 -0.0070806592394 -0.005644904192 0.11634111591 0.004857108426 -0.1632132347 0.016458060305 -0.098071338305 
-0.023837693753 0.013424326694 0.030482934101 -0.046543241901 0.073906791384 0.057776194531 -0.0032792434209 0.15987574977 -0.11366743156 
-0.013011560337 0.21057775716 -0.067361238852 -0.12700203971 0.048571700113 0.064957662293 -0.02568388976 0.17898130461 0.043235618101 
-0.031250205073 0.21919385107 0.082559184695 0.039880780314 0.026113743392 0.024039611571 -0.1093329276 0.013073293453 -0.054392005946 
-0.084078667498 0.04976864582 -0.029746205785 -0.043962486341 0.0078226513206 0.0099943416888 0.047803103404 -0.019324961862 -0.018901646946 
0.010421709988 0.032597662155 0.089304931032 0.048145546629 0.065638895238 -0.073652038648 0.035121297983 0.12847363527 0.096812815135 
-0.12291356276 0.086961111023 -0.054842966413 0.068650783752 0.018026213225 0.060475464125 -0.075355759169 0.021676425543 0.0073510566327 
0.056499256582 -0.0015408477827 -0.01087644756 0.095677381331 0.0044200649861 -0.086041273012 8.7304082862e-05 0.05658216547 0.0490846904 
0.042602169189 0.089323789222 -0.065956124659 -0.011140416409 0.097767829241 -0.12921837017 -0.11725801916 0.080804376536 -0.11056977243 
-0.17863798109 0.080621714764 -0.060402446342 -0.17298248825 0.074478765743 -0.1161293119 0.0720265258 0.092481050782 0.10567728676 
-0.10514529648 0.01736526256 0.032910920883 -0.016476201133 0.099454444818 -0.084306564822 0.088817694295 0.1124998154 -0.053149249242 
0.015727314557 0.021455075493 -0.0024677751594 0.037081951989 0.026421480088 0.065176466878 -0.023683525094 0.038479039595 0.077669425022 