# vtk DataFile Version 5.1
Generated by LIGGGHTS
ASCII
DATASET POLYDATA
POINTS 1184 float
-0.136442 0.0559506 -0.143655 -0.139564 0.0694674 -0.143232 -0.0961591 0.0860592 -0.144268 
-0.143319 0.0610458 -0.135843 -0.119228 0.0589194 -0.136533 -0.00140294 0.0643012 -0.134858 
-0.0165929 0.0771146 -0.140399 -0.00978686 0.108477 -0.137987 -0.103262 0.126982 -0.141479 
-0.0717759 0.132321 -0.141253 -0.144569 0.140923 -0.141821 -0.0794689 0.0606676 -0.134368 
-0.132142 0.0736883 -0.133367 -0.0403323 0.0764066 -0.127805 -0.090986 0.093405 -0.132294 
-0.01805 0.0981341 -0.12733 -0.0230903 0.129662 -0.128777 -0.131589 0.139936 -0.128412 
-0.142121 0.0642937 -0.126391 -0.138973 0.0589258 -0.112542 -0.12944 0.0559239 -0.115699 
-0.117913 0.0560068 -0.118573 -0.141245 0.0714187 -0.115648 -0.142731 0.0916388 -0.114445 
-0.0341525 0.0912925 -0.116633 -0.0703069 0.114563 -0.118521 -0.0940183 0.0612387 -0.111318 
-0.0370482 0.0806576 -0.111641 -0.128462 0.0927031 -0.110851 -0.0827496 0.129391 -0.110197 
-0.0264696 0.0612078 -0.100028 -0.138342 0.0698167 -0.0975715 -0.058832 0.0826393 -0.10499 
-0.0233261 0.10532 -0.10132 -0.0749652 0.124314 -0.0988519 -0.0579778 0.136152 -0.100745 
-0.0511615 0.0684701 -0.0950398 -0.116768 0.170297 -0.0933394 -0.0705495 0.152537 -0.0856898 
-0.12875 0.0615932 -0.076628 -0.0442817 0.0563906 -0.0805788 -0.0438842 0.0800536 -0.0787458 
-0.00476829 0.0789676 -0.0744334 -0.0393035 0.127055 -0.0764191 -0.00365551 0.0551667 -0.0684925 
-0.116009 0.075586 -0.072376 -0.11182 0.0873256 -0.0700137 -0.0426603 0.0993024 -0.0689858 
-0.0217017 0.0566606 -0.061772 -0.136265 0.111489 -0.0615886 -0.0261027 0.133737 -0.0617943 
-0.123034 0.191291 -0.0656247 -0.110831 0.191482 -0.0609913 -0.0611588 0.060962 -0.0594997 
-0.0224782 0.0780962 -0.0515956 -0.00953976 0.124331 -0.0559509 -0.0709369 0.0601025 -0.047893 
-0.120569 0.073997 -0.0481088 -0.00895474 0.0788137 -0.0458717 -0.0953701 0.114202 -0.0510141 
-0.00468001 0.100529 -0.0440372 -0.0099874 0.112766 -0.039973 -0.0419789 0.0885931 -0.0355475 
-0.136075 0.109597 -0.0344508 -0.0510331 0.141779 -0.0353424 -0.107262 0.0594885 -0.0226031 
-0.0135026 0.0677921 -0.0304993 -0.0029611 0.0857135 -0.024448 -0.00550422 0.112747 -0.0268368 
-0.0250837 0.127781 -0.0270028 -0.0699035 0.190782 -0.0295743 -0.120494 0.0553562 -0.0155402 
-0.0644633 0.0772875 -0.0199962 -0.0174197 0.0848389 -0.0210363 -0.132723 0.144109 -0.0164025 
-0.129832 0.0594911 -0.0131207 -0.0395764 0.0635779 -0.00843426 -0.131952 0.0771151 -0.00962863 
-0.0465895 0.0713233 -0.00756505 -0.0824556 0.0975844 -0.010569 -0.0107578 0.138935 -0.0102833 
-0.0872727 0.0608088 -0.00430775 -0.0149609 0.0573527 -0.00354902 -0.00434875 0.0574589 -0.00620887 
-0.124248 0.064807 -0.00473854 -0.107199 0.0805758 -0.00525363 -0.138036 0.0607914 0.000870751 
-0.00981826 0.0902458 0.0052821 -0.0308379 0.0554313 0.011877 -0.121656 0.0740237 0.0125648 
-0.132841 0.0672458 0.0199181 -0.111842 0.0627426 0.0164558 -0.0216334 0.0644223 0.0174155 
-0.144904 0.0702993 0.017016 -0.0915126 0.0836551 0.0189215 -0.0170074 0.0788483 0.0151756 
-0.131104 0.0875012 0.0214196 -0.113704 0.0553681 0.023428 -0.10702 0.088571 0.0260906 
-0.084242 0.133037 0.0293113 -0.100936 0.146711 0.0259869 -0.120178 0.0815692 0.0308418 
-0.0260866 0.0788209 0.0369168 -0.11251 0.138711 0.0383269 -0.0908658 0.0834583 0.0412299 
-0.0149524 0.0797049 0.0409809 -0.0413684 0.0939994 0.0391793 -0.123517 0.1038 0.0451868 
-0.0733906 0.12702 0.0423964 -0.140768 0.140002 0.0447809 -0.138782 0.184707 0.0433376 
-0.0354596 0.0603027 0.0502508 -0.0767944 0.0710589 0.0510218 -0.0555308 0.072692 0.0473963 
-0.13987 0.0776146 0.045884 -0.113475 0.0730665 0.058378 -0.138161 0.0614463 0.0670891 
-0.0424716 0.0583916 0.0643693 -0.0470264 0.156973 0.066175 -0.00502396 0.0913752 0.0704998 
-0.0765711 0.163754 0.073856 -0.0831724 0.0584234 0.0794205 -0.0113011 0.0603956 0.0817018 
-0.139323 0.074384 0.0789219 -0.127687 0.125026 0.0760152 -0.11939 0.0648926 0.0854248 
-0.035935 0.0660356 0.0841973 -0.0352055 0.0819032 0.0891436 -0.0147477 0.111863 0.0877244 
-0.124454 0.0702067 0.0949532 -0.111655 0.0963148 0.0978161 -0.0485296 0.0721322 0.104968 
-0.0305578 0.144239 0.0995669 -0.0503696 0.1707 0.101062 -0.00931846 0.0869218 0.112238 
-0.126947 0.113068 0.106869 -0.066764 0.172389 0.118666 -0.00965699 0.0554163 0.121034 
-0.0976936 0.157188 0.127071 -0.118138 0.0597947 0.142431 -0.102995 0.0718192 0.14187 
-0.107065 0.102269 0.137372 -0.0999121 0.115716 0.13882 -0.0418938 0.199631 0.140685 
-0.0375552 0.199492 0.140759 -0.0375805 0.199154 0.145097 -0.0419192 0.199293 0.145023 
-0.0765394 0.202683 -0.143792 -0.0816023 0.202539 -0.14347 -0.0766558 0.211871 -0.144028 
-0.0817187 0.211728 -0.143707 -0.0449927 0.211828 -0.144981 -0.0525098 0.211826 -0.144981 
-0.0449981 0.231033 -0.145178 -0.0525153 0.23103 -0.145178 -0.0762673 0.202951 -0.138729 
-0.0813302 0.202808 -0.138407 -0.0763837 0.21214 -0.138966 -0.0814466 0.211996 -0.138644 
-0.0525093 0.211925 -0.137464 -0.0449921 0.211928 -0.137464 -0.0449976 0.231132 -0.137661 
-0.0525148 0.231129 -0.137661 -0.13463 0.257402 -0.138861 -0.120042 0.257402 -0.138861 
-0.13463 0.305466 -0.138861 -0.120042 0.305466 -0.138861 -0.122248 0.338293 -0.133227 
-0.0990803 0.338319 -0.133227 -0.120275 0.38809 -0.128156 -0.0998253 0.388019 -0.128101 
-0.13463 0.257402 -0.124274 -0.120042 0.257402 -0.124274 -0.13463 0.305466 -0.124274 
-0.120042 0.305466 -0.124274 -0.0911827 0.220973 -0.1137 -0.0797883 0.221028 -0.1137 
-0.0912614 0.254252 -0.113629 -0.0798669 0.254306 -0.113629 -0.0462831 0.26873 -0.111681 
-0.0291018 0.26873 -0.111681 -0.0462831 0.327491 -0.111681 -0.0291018 0.327491 -0.111681 
-0.122248 0.338441 -0.110059 -0.0990801 0.338466 -0.110059 -0.120182 0.388028 -0.107578 
-0.0998503 0.387962 -0.107575 -0.0911826 0.220924 -0.102306 -0.0797882 0.220979 -0.102306 
-0.0912613 0.254203 -0.102235 -0.0798669 0.254257 -0.102235 -0.0266596 0.205938 -0.0959156 
-0.0266424 0.20577 -0.0899203 -0.0206641 0.205942 -0.0959284 -0.0206469 0.205774 -0.0899331 
-0.0266656 0.218732 -0.0957239 -0.0266484 0.218565 -0.0897286 -0.0206701 0.218736 -0.0957367 
-0.0206529 0.218569 -0.0897414 -0.0755114 0.24753 -0.0934514 -0.0625205 0.24753 -0.0934441 
-0.0943355 0.266138 -0.0969997 -0.078152 0.266138 -0.0969997 -0.0462831 0.26873 -0.0944999 
-0.0291018 0.26873 -0.0944999 -0.0662891 0.285331 -0.0923113 -0.0571704 0.285165 -0.0961467 
-0.0411633 0.281486 -0.0950155 -0.0755116 0.28901 -0.0934497 -0.0943355 0.320785 -0.0969997 
-0.078152 0.320785 -0.0969997 -0.0462831 0.327491 -0.0944999 -0.0291018 0.327491 -0.0944999 
-0.0609387 0.350949 -0.0950292 -0.0411633 0.350949 -0.0950292 -0.0442601 0.211492 -0.0873339 
-0.0363095 0.211005 -0.0866926 -0.0438004 0.23251 -0.086882 -0.0358497 0.232024 -0.0862407 
-0.0565405 0.265583 -0.0853776 -0.0815748 0.280562 -0.088606 -0.0731757 0.321839 -0.0855514 
-0.0449073 0.211017 -0.0793833 -0.0369567 0.21053 -0.078742 -0.0444475 0.232035 -0.0789313 
-0.0364969 0.231549 -0.07829 -0.0914776 0.247782 -0.0793515 -0.0795176 0.247882 -0.0785227 
-0.0742883 0.247429 -0.0812894 -0.0625279 0.247529 -0.0804534 -0.0943355 0.266138 -0.0808162 
-0.078152 0.266138 -0.0808162 -0.125037 0.27894 -0.0805177 -0.10586 0.278946 -0.0807572 
-0.0670673 0.273993 -0.0771857 -0.0525942 0.286997 -0.079973 -0.0411633 0.2815 -0.0752393 
-0.0258385 0.283247 -0.0756359 -0.00646228 0.283103 -0.0755181 -0.0914776 0.290084 -0.0793515 
-0.0782873 0.290084 -0.0793515 -0.062528 0.289009 -0.0804516 -0.0649376 0.316377 -0.0808626 
-0.0943355 0.320785 -0.0808162 -0.078152 0.320785 -0.0808162 -0.125046 0.345931 -0.0805401 
-0.105869 0.345937 -0.0807797 -0.0609387 0.350955 -0.0752547 -0.0411633 0.350955 -0.0752547 
-0.025628 0.35106 -0.0757917 -0.00625177 0.350917 -0.0756739 -0.0730783 0.265696 -0.06875 
-0.0564957 0.265732 -0.0687949 -0.0731309 0.321988 -0.0689689 -0.0565483 0.322024 -0.0690138 
-0.0914776 0.247782 -0.0661612 -0.0782873 0.247782 -0.0661612 -0.124797 0.278956 -0.061341 
-0.10562 0.278962 -0.0615806 -0.00303409 0.27608 -0.0634183 -0.0914776 0.290084 -0.0661612 
-0.0782873 0.290084 -0.0661612 -0.0218196 0.34142 -0.0635509 -0.00304206 0.341425 -0.0634606 
-0.124806 0.345947 -0.0613634 -0.105629 0.345953 -0.0616029 -0.0913745 0.269078 -0.0592688 
-0.0737941 0.269078 -0.0592688 -0.0198891 0.274225 -0.0597719 -0.0259564 0.283354 -0.0562597 
-0.00850263 0.285061 -0.0598786 -0.0631497 0.287952 -0.0597014 -0.0427756 0.287952 -0.0597014 
-0.0913745 0.329492 -0.059282 -0.0737941 0.329492 -0.059282 -0.0257459 0.351166 -0.0564155 
-0.00636963 0.351023 -0.0562977 -0.0631497 0.359881 -0.0597014 -0.0427756 0.359881 -0.0597014 
-0.111542 0.253944 -0.0398935 -0.0971548 0.253944 -0.0398935 -0.136074 0.269026 -0.0392838 
-0.119092 0.269026 -0.0392838 -0.0913745 0.269094 -0.0416878 -0.0737941 0.269094 -0.0416878 
-0.0219019 0.276103 -0.0447309 -0.00312418 0.276109 -0.0446408 -0.0631497 0.287952 -0.0393274 
-0.0427756 0.287952 -0.0393274 -0.111542 0.301184 -0.0398935 -0.0971548 0.301184 -0.0398935 
-0.136074 0.326961 -0.0392832 -0.119092 0.326961 -0.0392832 -0.0913745 0.329495 -0.0417023 
-0.0737941 0.329495 -0.0417023 -0.0219099 0.341449 -0.0447732 -0.00313214 0.341454 -0.044683 
-0.0631497 0.359881 -0.0393274 -0.0427756 0.359881 -0.0393274 -0.0229506 0.233915 -0.0333678 
-0.0220995 0.269577 -0.0324166 -0.055528 0.247042 -0.026456 -0.0421382 0.247042 -0.026456 
-0.111542 0.253944 -0.0255059 -0.0971548 0.253944 -0.0255059 -0.0579991 0.252076 -0.0236586 
-0.0436115 0.252221 -0.0236337 -0.136074 0.269022 -0.022302 -0.119092 0.269022 -0.022302 
-0.0255967 0.279447 -0.0280378 -0.055528 0.290167 -0.026456 -0.0421382 0.290167 -0.026456 
-0.111542 0.301184 -0.0255059 -0.0971548 0.301184 -0.0255059 -0.058134 0.299369 -0.0236338 
-0.0437464 0.299407 -0.0236587 -0.136074 0.326964 -0.0223015 -0.119092 0.326964 -0.0223015 
-0.0271616 0.346232 -0.0228581 -0.0229734 0.232726 -0.0213765 -0.0221759 0.268305 -0.0204257 
[...]
POINT_DATA 1184
FIELD FieldData 8
id 1 1184 int
3781 3801 3749 3894 3745 3927 3730 3789 3994 
3744 3970 2648 2739 2901 3917 3952 3937 3359 
3023 3024 3738 2755 3785 3823 3296 3981 3931 
3852 3908 3180 3844 3586 3685 3773 3932 3808 
3966 3987 3830 3360 3960 3877 3943 3903 3805 
3716 3135 3242 3961 3896 3244 3951 3243 3731 
3757 3809 3918 3727 2962 3939 3758 2824 3814 
3920 3873 3853 3714 3995 2749 3879 3953 3885 
3938 3787 3815 3182 3975 3297 3786 2961 2484 
3746 3919 3779 3971 3831 3925 2482 3962 2902 
3982 3720 3847 3688 3906 3782 3825 3836 3950 
3686 3988 3803 3940 2823 3775 3587 3954 3955 
3996 3909 3728 3747 3911 3788 3854 3631 3760 
3406 3765 3461 3761 3768 3871 3864 3910 3863 
2550 3968 3325 3721 3941 3136 2509 3997 3754 
3776 3963 3977 3632 3689 3729 3875 3956 4874 
4878 4879 4875 4870 4866 4872 4868 4798 4794 
4800 4796 4871 4867 4865 4869 4795 4799 4793 
4797 4442 4446 4444 4448 4018 4022 4020 4024 
4443 4447 4445 4441 4690 4694 4692 4696 4226 
4230 4228 4232 4019 4023 4021 4017 4691 4695 
4693 4689 4850 4851 4854 4855 4852 4853 4856 
4849 4602 4606 4330 4334 4227 4231 4608 4042 
4046 4604 4332 4336 4229 4225 4044 4048 4786 
4790 4788 4792 4286 4605 4284 4787 4791 4789 
4785 4594 4598 4603 4607 4331 4335 4084 4088 
4282 4043 4047 4058 4062 4596 4600 4601 4288 
4333 4329 4086 4090 4045 4041 4060 4064 4283 
4287 4285 4281 4595 4599 4085 4089 4142 4597 
4593 4140 4144 4087 4091 4194 4198 4138 4059 
4063 4026 4030 4196 4200 4061 4057 4028 4032 
4475 4479 4258 4262 4195 4199 4139 4143 4027 
4031 4477 4481 4260 4264 4197 4193 4141 4137 
4029 4025 4658 4660 4578 4582 4476 4480 4483 
4487 4259 4263 4092 4580 4584 4478 4482 4485 
4474 4261 4257 4094 4659 4661 4096 4074 4095 
4579 4583 4076 4093 4581 4577 4078 4080 4075 
4073 4077 4082 4079 4083 4081 4484 4488 4362 
4366 4486 4473 4364 4368 4346 4350 4162 4166 
4348 4352 4164 4168 4674 4678 4363 4367 4676 
4680 4365 4361 4012 4634 4638 4675 4679 4347 
4351 4314 4636 4318 4640 4677 4673 4349 4345 
4316 4320 4354 4266 4270 4163 4167 4034 4268 
4038 4356 4272 4165 4161 4036 4040 4730 4734 
4635 4639 4732 4736 4498 4315 4637 4633 4319 
4355 4146 4150 4317 4313 4148 4152 4004 4006 
4002 4008 4731 4735 4733 4729 4267 4271 4115 
4154 4119 4158 4035 4500 4269 4357 4265 4156 
4160 4117 4121 4068 4072 4770 4774 4772 4776 
4499 4210 4214 4147 4127 4151 4066 4070 4071 
4039 4212 4216 4149 4145 4125 4114 4037 4033 
4005 4001 4771 4775 4773 4769 4530 4534 4387 
4391 4234 4238 4159 4116 4120 4123 4067 4536 
4389 4501 4393 4236 4240 4118 4122 4069 4065 
4003 4007 4211 4215 4155 4124 4532 4128 4213 
4209 4157 4153 4450 4454 4586 4590 4531 4535 
4418 4422 4388 4392 4235 4290 4239 4294 4178 
4182 4452 4456 4588 4592 4533 4529 4420 4424 
4394 4292 4237 4296 4233 4180 4184 4126 4113 
4587 4591 4419 4423 4589 4585 4390 4421 4417 
4451 4455 4555 4559 4395 4399 4291 4338 4342 
4179 4183 4453 4449 4557 4561 4397 4386 4340 
4344 4293 4181 4177 4611 4615 4506 4510 4295 
4613 4508 4512 4289 4738 4742 4722 4726 4556 
4560 4740 4744 4724 4728 4400 4617 4339 4343 
4396 4558 4562 4398 4385 4341 4337 4619 4623 
4739 4743 4621 4612 4616 4507 4511 4741 4737 
4610 4614 4618 4050 4509 4505 4052 4826 4827 
4830 4831 4810 4814 4880 4876 4832 4624 4828 
4812 4816 4723 4727 4563 4567 4725 4609 4721 
4565 4554 4620 4811 4873 4877 4829 4825 4815 
4813 4809 4622 4568 4564 4566 4553 4051 4055 
4053 3899 3849 3161 3811 3440 3905 3818 3876 
3972 3838 3934 3755 3945 3762 3860 3784 3900 
3726 3405 3985 3858 3957 3025 3717 3964 3978 
2591 2481 3778 3741 2927 2989 3922 3856 3796 
3867 3711 3806 3888 3441 2867 3869 3737 3723 
2483 3819 3712 3850 3881 3797 3665 3324 3851 
3812 3766 3208 3162 3614 3691 4895 3770 3840 
2751 3262 2748 3889 3890 3771 3914 3991 3946 
2750 3777 2690 3791 3442 3732 3870 3774 3385 
3764 3263 3668 3799 3742 4890 4891 4894 3820 
3718 3763 3999 3828 3913 3915 3980 3969 3692 
3848 3693 3916 2963 3923 2790 3993 3979 3998 
3974 3613 3667 3924 3810 2928 3739 3790 3947 
3750 3719 3772 3835 3715 3892 3857 3751 3846 
3298 3443 3935 3861 3733 3833 3958 3983 3926 
3800 3798 2753 3872 3843 3936 3326 2868 3725 
3967 3902 3792 3883 3930 3444 4714 4718 4716 
4720 4715 4719 4717 4713 4626 4630 4628 4632 
4840 4836 4515 4519 4517 4521 4834 4835 4839 
4838 4833 4837 4627 4631 4629 4625 4516 4520 
4402 4406 4518 4522 4404 4408 4523 4527 4525 
4514 4698 4702 4700 4704 4403 4407 4405 4401 
4699 4703 4524 4528 4701 4697 4526 4513 4754 
4758 4756 4760 4426 4430 4428 4432 4759 4753 
4755 4757 4427 4490 4431 4494 4370 4374 4298 
4302 4492 4496 4429 4425 4372 4376 4300 4304 
4762 4766 4764 4768 4493 4489 4686 4682 4546 
4550 4491 4458 4462 4495 4371 4375 4202 4684 
4206 4688 4299 4303 4552 4548 4460 4464 4373 
4369 4204 4208 4301 4297 4763 4767 4761 4765 
4662 4666 4670 4683 4687 4547 4551 4459 4463 
4664 4203 4685 4207 4681 4668 4672 4545 4549 
4461 4457 4205 4201 4858 4863 4862 4860 4864 
4857 4859 4861 4663 4667 4671 4642 4646 4657 
4669 4665 4644 4648 4643 4647 4645 4641 4889 
4896 4892 4893 4888 4884 4881 4885 4802 4806 
4808 4804 4650 4654 4652 4656 4803 4807 4801 
4805 4651 4655 4306 4310 4653 4649 4308 4312 
4010 4014 4016 4746 4750 4748 4752 4380 4384 
4747 4751 4706 4710 4749 4745 4378 4382 4358 
4540 4708 4712 4307 4311 4360 4309 4305 4192 
4502 4186 4190 4381 4377 4188 4011 4015 4013 
4009 4538 4542 4707 4711 4379 4383 4322 4326 
4709 4705 4243 4247 4359 4544 4504 4103 4185 
4353 4328 4324 4245 4249 4101 4105 4503 4187 
4191 4099 4189 4539 4543 4244 4248 4541 4537 
4497 4325 4321 4246 4250 4410 4414 4327 4323 
4100 4104 4412 4416 4102 4106 4434 4438 4411 
4415 4436 4440 4413 4409 4255 4130 4134 4433 
4253 4242 4132 4136 4822 4818 4824 4820 4435 
4439 4218 4222 4251 4170 4174 4437 4220 4224 
4172 4176 4823 4819 4778 4782 4817 4821 4780 
4784 4252 4256 4131 4135 4254 4241 4133 4129 
4842 4846 4779 4783 4781 4777 4466 4470 4570 
4574 4274 4278 4219 4223 4054 4107 4111 4572 
4576 4276 4468 4472 4221 4217 4109 4098 4056 
4843 4847 4844 4845 4841 4848 4467 4471 4171 
4175 4469 4465 4280 4173 4169 4275 4279 4571 
4575 4108 4112 4573 4569 4277 4273 4110 4097 
4049 4882 4886 4887 4883 
type 1 1184 int
2 2 2 2 2 2 2 2 2 
2 2 2 2 2 2 2 2 2 
2 2 2 2 2 2 2 2 2 
2 2 2 2 2 2 2 2 2 
2 2 2 2 2 2 2 2 2 
2 2 2 2 2 2 2 2 2 
2 2 2 2 2 2 2 2 2 
2 2 2 2 2 2 2 2 2 
2 2 2 2 2 2 2 2 2 
2 2 2 2 2 2 2 2 2 
2 2 2 2 2 2 2 2 2 
2 2 2 2 2 2 2 2 2 
2 2 2 2 2 2 2 2 2 
2 2 2 2 2 2 2 2 2 
2 2 2 2 2 2 2 2 2 
2 2 2 2 2 2 2 2 2 
2 2 2 2 2 2 2 2 2 
2 2 2 2 2 2 2 2 2 
2 2 2 2 2 2 2 2 2 
2 2 2 2 2 2 2 2 2 
2 2 2 2 2 2 2 2 2 
2 2 2 2 2 2 2 2 2 
2 2 2 2 2 2 2 2 2 
2 2 2 2 2 2 2 2 2 
2 2 2 2 2 2 2 2 2 
2 2 2 2 2 2 2 2 2 
2 2 2 2 2 2 2 2 2 
2 2 2 2 2 2 2 2 2 
2 2 2 2 2 2 2 2 2 
2 2 2 2 2 2 2 2 2 
2 2 2 2 2 2 2 2 2 
2 2 2 2 2 2 2 2 2 
2 2 2 2 2 2 2 2 2 
2 2 2 2 2 2 2 2 2 
2 2 2 2 2 2 2 2 2 
2 2 2 2 2 2 2 2 2 
2 2 2 2 2 2 2 2 2 
2 2 2 2 2 2 2 2 2 
2 2 2 2 2 2 2 2 2 
2 2 2 2 2 2 2 2 2 
2 2 2 2 2 2 2 2 2 
2 2 2 2 2 2 2 2 2 
2 2 2 2 2 2 2 2 2 
2 2 2 2 2 2 2 2 2 
2 2 2 2 2 2 2 2 2 
2 2 2 2 2 2 2 2 2 
2 2 2 2 2 2 2 2 2 
2 2 2 2 2 2 2 2 2 
2 2 2 2 2 2 2 2 2 
2 2 2 2 2 2 2 2 2 
2 2 2 2 2 2 2 2 2 
2 2 2 2 2 2 2 2 2 
2 2 2 2 2 2 2 2 2 
2 2 2 2 2 2 2 2 2 
2 2 2 2 2 2 2 2 2 
2 2 2 2 2 2 2 2 2 
2 2 2 2 2 2 2 2 2 
2 2 2 2 2 2 2 2 2 
2 2 2 2 2 2 2 2 2 
2 2 2 2 2 2 2 2 2 
2 2 2 2 2 2 2 2 2 
2 2 2 2 2 2 2 2 2 
2 2 2 2 2 2 2 2 2 
2 2 2 2 2 2 2 2 2 
2 2 2 2 2 2 2 2 2 
2 2 2 2 2 2 2 2 2 
2 2 2 2 2 2 2 2 2 
2 2 2 2 2 2 2 2 2 
2 2 2 2 2 2 2 2 2 
2 2 2 2 2 2 2 2 2 
2 2 2 2 2 2 2 2 2 
2 2 2 2 2 2 2 2 2 
2 2 2 2 2 2 2 2 2 
2 2 2 2 2 2 2 2 2 
2 2 2 2 2 2 2 2 2 
2 2 2 2 2 2 2 2 2 
2 2 2 2 2 2 2 2 2 
2 2 2 2 2 2 2 2 2 
2 2 2 2 2 2 2 2 2 
2 2 2 2 2 2 2 2 2 
2 2 2 2 2 2 2 2 2 
2 2 2 2 2 2 2 2 2 
2 2 2 2 2 2 2 2 2 
2 2 2 2 2 2 2 2 2 
2 2 2 2 2 2 2 2 2 
2 2 2 2 2 2 2 2 2 
2 2 2 2 2 2 2 2 2 
2 2 2 2 2 2 2 2 2 
2 2 2 2 2 2 2 2 2 
2 2 2 2 2 2 2 2 2 
2 2 2 2 2 2 2 2 2 
2 2 2 2 2 2 2 2 2 
2 2 2 2 2 2 2 2 2 
2 2 2 2 2 2 2 2 2 
2 2 2 2 2 2 2 2 2 
2 2 2 2 2 2 2 2 2 
2 2 2 2 2 2 2 2 2 
2 2 2 2 2 2 2 2 2 
2 2 2 2 2 2 2 2 2 
2 2 2 2 2 2 2 2 2 
2 2 2 2 2 2 2 2 2 
2 2 2 2 2 2 2 2 2 
2 2 2 2 2 2 2 2 2 
2 2 2 2 2 2 2 2 2 
2 2 2 2 2 2 2 2 2 
2 2 2 2 2 2 2 2 2 
2 2 2 2 2 2 2 2 2 
2 2 2 2 2 2 2 2 2 
2 2 2 2 2 2 2 2 2 
2 2 2 2 2 2 2 2 2 
2 2 2 2 2 2 2 2 2 
2 2 2 2 2 2 2 2 2 
2 2 2 2 2 2 2 2 2 
2 2 2 2 2 2 2 2 2 
2 2 2 2 2 2 2 2 2 
2 2 2 2 2 2 2 2 2 
2 2 2 2 2 2 2 2 2 
2 2 2 2 2 2 2 2 2 
2 2 2 2 2 2 2 2 2 
2 2 2 2 2 2 2 2 2 
2 2 2 2 2 2 2 2 2 
2 2 2 2 2 2 2 2 2 
2 2 2 2 2 2 2 2 2 
2 2 2 2 2 2 2 2 2 
2 2 2 2 2 2 2 2 2 
2 2 2 2 2 2 2 2 2 
2 2 2 2 2 2 2 2 2 
2 2 2 2 2 2 2 2 2 
2 2 2 2 2 2 2 2 2 
2 2 2 2 2 2 2 2 2 
2 2 2 2 2 2 2 2 2 
2 2 2 2 2 
i 3 1184 int
0 0 0 0 0 0 0 0 0 
0 0 0 0 0 0 0 0 0 
0 0 0 0 0 0 0 0 0 
0 0 0 0 0 0 0 0 0 
0 0 0 0 0 0 0 0 0 
0 0 0 0 0 0 0 0 0 
0 0 0 0 0 0 0 0 0 
0 0 0 0 0 0 0 0 0 
0 0 0 0 0 0 0 0 0 
0 0 0 0 0 0 0 0 0 
0 0 0 0 0 0 0 0 0 
0 0 0 0 0 0 0 0 0 
0 0 0 0 0 0 0 0 0 
0 0 0 0 0 0 0 0 0 
0 0 0 0 0 0 0 0 0 
0 0 0 0 0 0 0 0 0 
0 0 0 0 0 0 0 0 0 
0 0 0 0 0 0 0 0 0 
0 0 0 0 0 0 0 0 0 
0 0 0 0 0 0 0 0 0 
0 0 0 0 0 0 0 0 0 
0 0 0 0 0 0 0 0 0 
0 0 0 0 0 0 0 0 0 
0 0 0 0 0 0 0 0 0 
0 0 0 0 0 0 0 0 0 
0 0 0 0 0 0 0 0 0 
0 0 0 0 0 0 0 0 0 
0 0 0 0 0 0 0 0 0 
0 0 0 0 0 0 0 0 0 
0 0 0 0 0 0 0 0 0 
0 0 0 0 0 0 0 0 0 
0 0 0 0 0 0 0 0 0 
0 0 0 0 0 0 0 0 0 
0 0 0 0 0 0 0 0 0 
0 0 0 0 0 0 0 0 0 
0 0 0 0 0 0 0 0 0 
0 0 0 0 0 0 0 0 0 
0 0 0 0 0 0 0 0 0 
0 0 0 0 0 0 0 0 0 
0 0 0 0 0 0 0 0 0 
0 0 0 0 0 0 0 0 0 
0 0 0 0 0 0 0 0 0 
0 0 0 0 0 0 0 0 0 
0 0 0 0 0 0 0 0 0 
0 0 0 0 0 0 0 0 0 
0 0 0 0 0 0 0 0 0 
0 0 0 0 0 0 0 0 0 
0 0 0 0 0 0 0 0 0 
0 0 0 0 0 0 0 0 0 
0 0 0 0 0 0 0 0 0 
0 0 0 0 0 0 0 0 0 
0 0 0 0 0 0 0 0 0 
0 0 0 0 0 0 0 0 0 
0 0 0 0 0 0 0 0 0 
0 0 0 0 0 0 0 0 0 
0 0 0 0 0 0 0 0 0 
0 0 0 0 0 0 0 0 0 
0 0 0 0 0 0 0 0 0 
0 0 0 0 0 0 0 0 0 
0 0 0 0 0 0 0 0 0 
0 0 0 0 0 0 0 0 0 
0 0 0 0 0 0 0 0 0 
0 0 0 0 0 0 0 0 0 
0 0 0 0 0 0 0 0 0 
0 0 0 0 0 0 0 0 0 
0 0 0 0 0 0 0 0 0 
0 0 0 0 0 0 0 0 0 
0 0 0 0 0 0 0 0 0 
0 0 0 0 0 0 0 0 0 
0 0 0 0 0 0 0 0 0 
0 0 0 0 0 0 0 0 0 
0 0 0 0 0 0 0 0 0 
0 0 0 0 0 0 0 0 0 
0 0 0 0 0 0 0 0 0 
0 0 0 0 0 0 0 0 0 
0 0 0 0 0 0 0 0 0 
0 0 0 0 0 0 0 0 0 
0 0 0 0 0 0 0 0 0 
0 0 0 0 0 0 0 0 0 
0 0 0 0 0 0 0 0 0 
0 0 0 0 0 0 0 0 0 
0 0 0 0 0 0 0 0 0 
0 0 0 0 0 0 0 0 0 
0 0 0 0 0 0 0 0 0 
0 0 0 0 0 0 0 0 0 
0 0 0 0 0 0 0 0 0 
0 0 0 0 0 0 0 0 0 
0 0 0 0 0 0 0 0 0 
0 0 0 0 0 0 0 0 0 
0 0 0 0 0 0 0 0 0 
0 0 0 0 0 0 0 0 0 
0 0 0 0 0 0 0 0 0 
0 0 0 0 0 0 0 0 0 
0 0 0 0 0 0 0 0 0 
0 0 0 0 0 0 0 0 0 
0 0 0 0 0 0 0 0 0 
0 0 0 0 0 0 0 0 0 
0 0 0 0 0 0 0 0 0 
0 0 0 0 0 0 0 0 0 
0 0 0 0 0 0 0 0 0 
0 0 0 0 0 0 0 0 0 
0 0 0 0 0 0 0 0 0 
0 0 0 0 0 0 0 0 0 
0 0 0 0 0 0 0 0 0 
0 0 0 0 0 0 0 0 0 
0 0 0 0 0 0 0 0 0 
0 0 0 0 0 0 0 0 0 
0 0 0 0 0 0 0 0 0 
0 0 0 0 0 0 0 0 0 
0 0 0 0 0 0 0 0 0 
0 0 0 0 0 0 0 0 0 
0 0 0 0 0 0 0 0 0 
0 0 0 0 0 0 0 0 0 
0 0 0 0 0 0 0 0 0 
0 0 0 0 0 0 0 0 0 
0 0 0 0 0 0 0 0 0 
0 0 0 0 0 0 0 0 0 
0 0 0 0 0 0 0 0 0 
0 0 0 0 0 0 0 0 0 
0 0 0 0 0 0 0 0 0 
0 0 0 0 0 0 0 0 0 
0 0 0 0 0 0 0 0 0 
0 0 0 0 0 0 0 0 0 
0 0 0 0 0 0 0 0 0 
0 0 0 0 0 0 0 0 0 
0 0 0 0 0 0 0 0 0 
0 0 0 0 0 0 0 0 0 
0 0 0 0 0 0 0 0 0 
0 0 0 0 0 0 0 0 0 
0 0 0 0 0 0 0 0 0 
0 0 0 0 0 0 0 0 0 
0 0 0 0 0 0 0 0 0 
0 0 0 0 0 0 0 0 0 
0 0 0 0 0 0 0 0 0 
0 0 0 0 0 0 0 0 0 
0 0 0 0 0 0 0 0 0 
0 0 0 0 0 0 0 0 0 
0 0 0 0 0 0 0 0 0 
0 0 0 0 0 0 0 0 0 
0 0 0 0 0 0 0 0 0 
0 0 0 0 0 0 0 0 0 
0 0 0 0 0 0 0 0 0 
0 0 0 0 0 0 0 0 0 
0 0 0 0 0 0 0 0 0 
0 0 0 0 0 0 0 0 0 
0 0 0 0 0 0 0 0 0 
0 0 0 0 0 0 0 0 0 
0 0 0 0 0 0 0 0 0 
0 0 0 0 0 0 0 0 0 
0 0 0 0 0 0 0 0 0 
0 0 0 0 0 0 0 0 0 
0 0 0 0 0 0 0 0 0 
0 0 0 0 0 0 0 0 0 
0 0 0 0 0 0 0 0 0 
0 0 0 0 0 0 0 0 0 
0 0 0 0 0 0 0 0 0 
0 0 0 0 0 0 0 0 0 
0 0 0 0 0 0 0 0 0 
0 0 0 0 0 0 0 0 0 
0 0 0 0 0 0 0 0 0 
0 0 0 0 0 0 0 0 0 
0 0 0 0 0 0 0 0 0 
0 0 0 0 0 0 0 0 0 
0 0 0 0 0 0 0 0 0 
0 0 0 0 0 0 0 0 0 
0 0 0 0 0 0 0 0 0 
0 0 0 0 0 0 0 0 0 
0 0 0 0 0 0 0 0 0 
0 0 0 0 0 0 0 0 0 
0 0 0 0 0 0 0 0 0 
0 0 0 0 0 0 0 0 0 
0 0 0 0 0 0 0 0 0 
0 0 0 0 0 0 0 0 0 
0 0 0 0 0 0 0 0 0 
0 0 0 0 0 0 0 0 0 
0 0 0 0 0 0 0 0 0 
0 0 0 0 0 0 0 0 0 
0 0 0 0 0 0 0 0 0 
0 0 0 0 0 0 0 0 0 
0 0 0 0 0 0 0 0 0 
0 0 0 0 0 0 0 0 0 
0 0 0 0 0 0 0 0 0 
0 0 0 0 0 0 0 0 0 
0 0 0 0 0 0 0 0 0 
0 0 0 0 0 0 0 0 0 
0 0 0 0 0 0 0 0 0 
0 0 0 0 0 0 0 0 0 
0 0 0 0 0 0 0 0 0 
0 0 0 0 0 0 0 0 0 
0 0 0 0 0 0 0 0 0 
0 0 0 0 0 0 0 0 0 
0 0 0 0 0 0 0 0 0 
0 0 0 0 0 0 0 0 0 
0 0 0 0 0 0 0 0 0 
0 0 0 0 0 0 0 0 0 
0 0 0 0 0 0 0 0 0 
0 0 0 0 0 0 0 0 0 
0 0 0 0 0 0 0 0 0 
0 0 0 0 0 0 0 0 0 
0 0 0 0 0 0 0 0 0 
0 0 0 0 0 0 0 0 0 
0 0 0 0 0 0 0 0 0 
0 0 0 0 0 0 0 0 0 
0 0 0 0 0 0 0 0 0 
0 0 0 0 0 0 0 0 0 
0 0 0 0 0 0 0 0 0 
0 0 0 0 0 0 0 0 0 
0 0 0 0 0 0 0 0 0 
0 0 0 0 0 0 0 0 0 
0 0 0 0 0 0 0 0 0 
0 0 0 0 0 0 0 0 0 
0 0 0 0 0 0 0 0 0 
0 0 0 0 0 0 0 0 0 
0 0 0 0 0 0 0 0 0 
0 0 0 0 0 0 0 0 0 
0 0 0 0 0 0 0 0 0 
0 0 0 0 0 0 0 0 0 
0 0 0 0 0 0 0 0 0 
0 0 0 0 0 0 0 0 0 
0 0 0 0 0 0 0 0 0 
0 0 0 0 0 0 0 0 0 
0 0 0 0 0 0 0 0 0 
0 0 0 0 0 0 0 0 0 
0 0 0 0 0 0 0 0 0 
0 0 0 0 0 0 0 0 0 
0 0 0 0 0 0 0 0 0 
0 0 0 0 0 0 0 0 0 
0 0 0 0 0 0 0 0 0 
0 0 0 0 0 0 0 0 0 
0 0 0 0 0 0 0 0 0 
0 0 0 0 0 0 0 0 0 
0 0 0 0 0 0 0 0 0 
0 0 0 0 0 0 0 0 0 
0 0 0 0 0 0 0 0 0 
0 0 0 0 0 0 0 0 0 
0 0 0 0 0 0 0 0 0 
0 0 0 0 0 0 0 0 0 
0 0 0 0 0 0 0 0 0 
0 0 0 0 0 0 0 0 0 
0 0 0 0 0 0 0 0 0 
0 0 0 0 0 0 0 0 0 
0 0 0 0 0 0 0 0 0 
0 0 0 0 0 0 0 0 0 
0 0 0 0 0 0 0 0 0 
0 0 0 0 0 0 0 0 0 
0 0 0 0 0 0 0 0 0 
0 0 0 0 0 0 0 0 0 
0 0 0 0 0 0 0 0 0 
0 0 0 0 0 0 0 0 0 
0 0 0 0 0 0 0 0 0 
0 0 0 0 0 0 0 0 0 
0 0 0 0 0 0 0 0 0 
0 0 0 0 0 0 0 0 0 
0 0 0 0 0 0 0 0 0 
0 0 0 0 0 0 0 0 0 
0 0 0 0 0 0 0 0 0 
0 0 0 0 0 0 0 0 0 
0 0 0 0 0 0 0 0 0 
0 0 0 0 0 0 0 0 0 
0 0 0 0 0 0 0 0 0 
0 0 0 0 0 0 0 0 0 
0 0 0 0 0 0 0 0 0 
0 0 0 0 0 0 0 0 0 
0 0 0 0 0 0 0 0 0 
0 0 0 0 0 0 0 0 0 
0 0 0 0 0 0 0 0 0 
0 0 0 0 0 0 0 0 0 
0 0 0 0 0 0 0 0 0 
0 0 0 0 0 0 0 0 0 
0 0 0 0 0 0 0 0 0 
0 0 0 0 0 0 0 0 0 
0 0 0 0 0 0 0 0 0 
0 0 0 0 0 0 0 0 0 
0 0 0 0 0 0 0 0 0 
0 0 0 0 0 0 0 0 0 
0 0 0 0 0 0 0 0 0 
0 0 0 0 0 0 0 0 0 
0 0 0 0 0 0 0 0 0 
0 0 0 0 0 0 0 0 0 
0 0 0 0 0 0 0 0 0 
0 0 0 0 0 0 0 0 0 
0 0 0 0 0 0 0 0 0 
0 0 0 0 0 0 0 0 0 
0 0 0 0 0 0 0 0 0 
0 0 0 0 0 0 0 0 0 
0 0 0 0 0 0 0 0 0 
0 0 0 0 0 0 0 0 0 
0 0 0 0 0 0 0 0 0 
0 0 0 0 0 0 0 0 0 
0 0 0 0 0 0 0 0 0 
0 0 0 0 0 0 0 0 0 
0 0 0 0 0 0 0 0 0 
0 0 0 0 0 0 0 0 0 
0 0 0 0 0 0 0 0 0 
0 0 0 0 0 0 0 0 0 
0 0 0 0 0 0 0 0 0 
0 0 0 0 0 0 0 0 0 
0 0 0 0 0 0 0 0 0 
0 0 0 0 0 0 0 0 0 
0 0 0 0 0 0 0 0 0 
0 0 0 0 0 0 0 0 0 
0 0 0 0 0 0 0 0 0 
0 0 0 0 0 0 0 0 0 
0 0 0 0 0 0 0 0 0 
0 0 0 0 0 0 0 0 0 
0 0 0 0 0 0 0 0 0 
0 0 0 0 0 0 0 0 0 
0 0 0 0 0 0 0 0 0 
0 0 0 0 0 0 0 0 0 
0 0 0 0 0 0 0 0 0 
0 0 0 0 0 0 0 0 0 
0 0 0 0 0 0 0 0 0 
0 0 0 0 0 0 0 0 0 
0 0 0 0 0 0 0 0 0 
0 0 0 0 0 0 0 0 0 
0 0 0 0 0 0 0 0 0 
0 0 0 0 0 0 0 0 0 
0 0 0 0 0 0 0 0 0 
0 0 0 0 0 0 0 0 0 
0 0 0 0 0 0 0 0 0 
0 0 0 0 0 0 0 0 0 
0 0 0 0 0 0 0 0 0 
0 0 0 0 0 0 0 0 0 
0 0 0 0 0 0 0 0 0 
0 0 0 0 0 0 0 0 0 
0 0 0 0 0 0 0 0 0 
0 0 0 0 0 0 0 0 0 
0 0 0 0 0 0 0 0 0 
0 0 0 0 0 0 0 0 0 
0 0 0 0 0 0 0 0 0 
0 0 0 0 0 0 0 0 0 
0 0 0 0 0 0 0 0 0 
0 0 0 0 0 0 0 0 0 
0 0 0 0 0 0 0 0 0 
0 0 0 0 0 0 0 0 0 
0 0 0 0 0 0 0 0 0 
0 0 0 0 0 0 0 0 0 
0 0 0 0 0 0 0 0 0 
0 0 0 0 0 0 0 0 0 
0 0 0 0 0 0 0 0 0 
0 0 0 0 0 0 0 0 0 
0 0 0 0 0 0 0 0 0 
0 0 0 0 0 0 0 0 0 
0 0 0 0 0 0 0 0 0 
0 0 0 0 0 0 0 0 0 
0 0 0 0 0 0 0 0 0 
0 0 0 0 0 0 0 0 0 
0 0 0 0 0 0 0 0 0 
0 0 0 0 0 0 0 0 0 
0 0 0 0 0 0 0 0 0 
0 0 0 0 0 0 0 0 0 
0 0 0 0 0 0 0 0 0 
0 0 0 0 0 0 0 0 0 
0 0 0 0 0 0 0 0 0 
0 0 0 0 0 0 0 0 0 
0 0 0 0 0 0 0 0 0 
0 0 0 0 0 0 0 0 0 
0 0 0 0 0 0 0 0 0 
0 0 0 0 0 0 0 0 0 
0 0 0 0 0 0 0 0 0 
0 0 0 0 0 0 0 0 0 
0 0 0 0 0 0 0 0 0 
0 0 0 0 0 0 0 0 0 
0 0 0 0 0 0 0 0 0 
0 0 0 0 0 0 0 0 0 
0 0 0 0 0 0 0 0 0 
0 0 0 0 0 0 0 0 0 
0 0 0 0 0 0 0 0 0 
0 0 0 0 0 0 0 0 0 
0 0 0 0 0 0 0 0 0 
0 0 0 0 0 0 0 0 0 
0 0 0 0 0 0 0 0 0 
0 0 0 0 0 0 0 0 0 
0 0 0 0 0 0 0 0 0 
0 0 0 0 0 0 0 0 0 
0 0 0 0 0 0 0 0 0 
0 0 0 0 0 0 0 0 0 
0 0 0 0 0 0 0 0 0 
0 0 0 0 0 0 0 0 0 
0 0 0 0 0 0 0 0 0 
0 0 0 0 0 0 0 0 0 
0 0 0 0 0 0 0 0 0 
0 0 0 0 0 0 0 0 0 
0 0 0 0 0 0 0 0 0 
0 0 0 0 0 0 0 0 0 
0 0 0 0 0 0 0 0 0 
0 0 0 0 0 0 0 0 0 
0 0 0 0 0 0 0 0 0 
0 0 0 0 0 0 0 0 0 
0 0 0 0 0 0 0 0 0 
0 0 0 0 0 0 0 0 0 
0 0 0 0 0 0 0 0 0 
0 0 0 0 0 0 0 0 0 
0 0 0 0 0 0 0 0 0 
0 0 0 0 0 0 
v 3 1184 double
0.0080156891962 -0.0015029605931 0.004447886628 0.010048934566 -0.00070430313784 0.0034683114765 -0.19048707261 0.037453699347 -0.044591951551 
0.0046274359853 0.008066801115 -0.0032981339191 -0.0056303209371 0.0085283445581 0.016039859049 -0.01040054753 0.0058004044742 0.04555054737 
-0.029080006669 0.04353332093 0.035337047209 -0.084222972431 0.081829535961 -0.0015657430505 -0.015970077835 0.15166809512 0.0078683031147 
0.0084999301845 0.1323890659 0.0081926522313 0.053223610559 0.075188324127 0.0077208849171 -0.027173646627 0.011902077028 0.021408443641 
0.0086390268809 0.038845535794 -0.0015567670795 0.019798951085 0.040401127349 0.0076420378047 -0.078830096885 0.05744859893 0.00019912973901 
-0.073359751146 0.048740936439 0.033533506534 0.00042695319134 0.13846042764 0.029105660503 -0.097613623005 0.14261836488 -0.069878233524 
0.053674959712 -0.047300543856 -0.035729475274 -0.040629181533 0.011950981917 0.025322700445 -0.050349915205 -0.12399119567 -0.084344299395 
-0.0030698152518 -0.047452105946 -0.019269619845 -0.1521734376 0.090918890569 -0.019684191276 0.029483446629 0.02126726561 0.019328405917 
0.012718550083 0.067616469755 0.01425317236 0.096087284017 0.12261288527 -0.004294039915 -0.055110835015 0.016838623604 0.044337729087 
-0.024108631974 0.052866387327 -0.0092589620461 -0.067244853967 0.04522047833 -0.011281584556 -0.005644904192 0.11634111591 0.004857108426 
-0.023837693753 0.013424326694 0.030482934101 -0.12700203971 0.048571700113 0.064957662293 0.017418324533 0.057616216922 -0.030352324845 
-0.046543241901 0.073906791384 0.057776194531 -0.0032792434209 0.15987574977 -0.11366743156 -0.013011560337 0.21057775716 -0.067361238852 
-0.1632132347 0.016458060305 -0.098071338305 -0.031250205073 0.21919385107 0.082559184695 -0.02568388976 0.17898130461 0.043235618101 
-0.1093329276 0.013073293453 -0.054392005946 0.039880780314 0.026113743392 0.024039611571 -0.084078667498 0.04976864582 -0.029746205785 
0.010421709988 0.032597662155 0.089304931032 0.035121297983 0.12847363527 0.096812815135 -0.043962486341 0.0078226513206 0.0099943416888 
0.047803103404 -0.019324961862 -0.018901646946 0.048145546629 0.065638895238 -0.073652038648 8.7304082862e-05 0.05658216547 0.0490846904 
0.095677381331 0.0044200649861 -0.086041273012 0.042602169189 0.089323789222 -0.065956124659 -0.011140416409 0.097767829241 -0.12921837017 
0.023475480505 0.23269993324 -0.13228825416 0.070840408429 0.24857152678 -0.025740045988 -0.10514529648 0.01736526256 0.032910920883 
0.17906924697 0.04465336239 0.12954131523 0.088817694295 0.1124998154 -0.053149249242 0.015727314557 0.021455075493 -0.0024677751594 
-0.023683525094 0.038479039595 0.077669425022 -0.0039167831326 0.051254836739 -0.001557137884 -0.016476201133 0.099454444818 -0.084306564822 
0.21273066105 0.083784470045 0.0040210919325 0.092836600924 0.11632370629 -0.033720182364 0.12805066387 0.097112908791 0.070525714734 
0.028538407798 0.025056636625 -0.064268107381 -0.041178332009 0.14957725344 0.14796284926 0.032153006952 0.017443458787 0.013840565836 
-0.12138748745 0.023556564993 -0.062933400745 0.11675560386 0.0055103898253 0.016518092401 0.065426130544 0.13385490915 0.035482408426 
-0.033229108723 0.13146619811 -0.072439225811 -0.15104217532 0.21350433729 -0.08847513098 -0.034575399922 0.014476296317 -0.0031718926662 
0.031590655792 0.043572963739 -0.02529784089 0.066069911894 0.030486271706 0.011613924384 0.0094198569489 0.15103026516 -0.022541178981 
-0.044097505797 -0.017331996616 -0.013690871854 0.027032685635 0.021794619309 -0.024559164227 0.0027558020571 0.066480200587 0.020948937278 
0.068650783752 0.018026213225 0.060475464125 0.0720265258 0.092481050782 0.10567728676 -0.14265671729 0.14287988695 -0.12975060637 