# vtk DataFile Version 5.1
Generated by LIGGGHTS
ASCII
DATASET POLYDATA
POINTS 785 float
-0.138045 0.0562512 -0.144545 -0.141574 0.0696083 -0.143926 -0.100068 0.0966481 -0.143052 
-0.0734759 0.105843 -0.142892 -0.119765 0.109354 -0.143232 -0.0495757 0.160822 -0.143031 
-0.144245 0.0594324 -0.135183 -0.118101 0.0572137 -0.139741 -0.0740342 0.0582871 -0.13865 
-0.00821388 0.06736 -0.139057 -0.0580617 0.0785684 -0.13535 -0.133869 0.0659192 -0.133056 
-0.0442921 0.0683263 -0.129334 -0.07522 0.0819153 -0.132334 -0.00337802 0.0883859 -0.134037 
-0.0231757 0.10197 -0.134599 -0.00974818 0.135649 -0.132225 -0.127336 0.199434 -0.131567 
-0.115468 0.0600425 -0.125324 -0.0829961 0.0578709 -0.120185 -0.129646 0.0626356 -0.121201 
-0.137723 0.0815863 -0.1221 -0.0708017 0.154864 -0.125814 -0.140871 0.056862 -0.117045 
-0.124045 0.0792032 -0.116413 -0.0366962 0.0777692 -0.119484 -0.0895244 0.0900404 -0.117663 
-0.0140175 0.0905389 -0.112875 -0.112066 0.111413 -0.114436 -0.0217021 0.0585229 -0.106125 
-0.122017 0.0630675 -0.111627 -0.0322265 0.0700843 -0.109789 -0.115013 0.083659 -0.108595 
-0.0816206 0.106122 -0.111168 -0.110518 0.126458 -0.109851 -0.0235236 0.157585 -0.111492 
-0.0835933 0.183605 -0.10958 -0.0623156 0.0711161 -0.0989198 -0.00685263 0.0724481 -0.0922944 
-0.0463277 0.10136 -0.0957817 -0.0654127 0.11674 -0.094337 -0.0537269 0.0644036 -0.0885427 
-0.0553755 0.094036 -0.087273 -0.0689994 0.187733 -0.0869717 -0.058292 0.0691655 -0.0775039 
-0.0170227 0.0647516 -0.076541 -0.131045 0.0758276 -0.0748529 -0.0832658 0.0734847 -0.0782338 
-0.0743093 0.0923392 -0.0761184 -0.0426777 0.087986 -0.0788027 -0.0285647 0.0705267 -0.0716811 
-0.0848825 0.189181 -0.0727564 -0.106884 0.0589786 -0.0657496 -0.0401298 0.0574889 -0.0660819 
-0.115832 0.0663012 -0.0636427 -0.0427974 0.111863 -0.064935 -0.115382 0.144791 -0.0605945 
-0.0740824 0.0558115 -0.0473994 -0.067589 0.0691705 -0.0496526 -0.00817138 0.0685627 -0.0455603 
-0.115973 0.0778212 -0.049026 -0.144785 0.0936239 -0.0483974 -0.0408372 0.0557766 -0.0445638 
-0.0472261 0.0837724 -0.0448414 -0.0273033 0.101831 -0.045321 -0.024163 0.167162 -0.0439043 
-0.11296 0.0565361 -0.0301478 -0.0968609 0.0790882 -0.0317044 -0.0334793 0.0911117 -0.0345944 
-0.0110238 0.0870501 -0.0344685 -0.0920748 0.0943114 -0.0341528 -0.0238746 0.114183 -0.0359507 
-0.010908 0.128384 -0.0327784 -0.137346 0.141728 -0.0344159 -0.104349 0.197755 -0.0326997 
-0.0260938 0.0837824 -0.0270347 -0.134144 0.0647315 -0.014778 -0.0603196 0.067718 -0.0196601 
-0.0410569 0.0619787 -0.0156153 -0.0334932 0.076886 -0.0221754 -0.00589964 0.0788227 -0.0146656 
-0.141782 0.104585 -0.0215972 -0.0676549 0.108128 -0.0147522 -0.0488331 0.191057 -0.019761 
-0.112041 0.0580124 -0.0125884 -0.12146 0.0617756 -0.00844632 -0.0707815 0.068573 -0.0149366 
-0.0184379 0.101488 -0.0125149 -0.134607 0.113903 -0.0118943 -0.122158 0.118866 -0.0106684 
-0.0396951 0.148081 -0.0118793 -0.137489 0.0566731 -0.0025257 -0.0823606 0.058537 -0.00203334 
-0.0449829 0.0592189 -0.00352242 -0.108823 0.0634292 -0.00377527 -0.0471301 0.198018 -0.00115547 
-0.119613 0.0669343 0.0066214 -0.110184 0.0716938 0.00310962 -0.10267 0.0597794 0.0103843 
-0.0419213 0.0558885 0.0136099 -0.143677 0.0637718 0.0139553 -0.133527 0.0638851 0.0111142 
-0.0721586 0.104161 0.015531 -0.130714 0.0737117 0.0160147 -0.026888 0.0702289 0.0178582 
-0.110479 0.0782664 0.0192513 -0.0950337 0.114364 0.0203032 -0.125064 0.0553447 0.0242409 
-0.11938 0.0723872 0.0249471 -0.0377041 0.0746421 0.025402 -0.0235771 0.0719835 0.0293329 
-0.121991 0.111498 0.028187 -0.044632 0.0582195 0.0370421 -0.0208338 0.059171 0.0296319 
-0.00288013 0.0550319 0.0355745 -0.0864741 0.07262 0.0315703 -0.0526091 0.0757214 0.0318987 
-0.128469 0.0881351 0.0362921 -0.042776 0.178853 0.0363895 -0.104264 0.065987 0.039945 
-0.0636693 0.0646862 0.0440553 -0.133035 0.136318 0.0435442 -0.076132 0.0636614 0.0481178 
-0.136976 0.0710388 0.0463746 -0.00373146 0.0997834 0.0518048 -0.0900064 0.18927 0.0479578 
-0.0863252 0.0571044 0.0604506 -0.131637 0.0618859 0.0556432 -0.0348026 0.0617859 0.0560448 
-0.138983 0.0695609 0.0592689 -0.110102 0.17461 0.0598136 -0.130738 0.0598376 0.0673373 
-0.0147619 0.0743945 0.0609858 -0.0728315 0.124081 0.0670091 -0.00178041 0.0581237 0.0729483 
-0.113484 0.0998187 0.0752444 -0.0317432 0.121522 0.0710981 -0.132462 0.0622736 0.0784618 
-0.0389259 0.0788347 0.0759022 -0.117882 0.0897734 0.0777521 -0.00443931 0.0903326 0.080529 
-0.0803607 0.166603 0.0768967 -0.0484404 0.0662836 0.0845655 -0.0154089 0.0620041 0.0843658 
-0.129978 0.10728 0.0876416 -0.0418535 0.194471 0.086662 -0.0150862 0.199162 0.0992161 
-0.0150862 0.199162 0.0955561 -0.0298961 0.117483 0.100232 -0.0571678 0.132205 0.104626 
-0.120792 0.191421 0.0987512 -0.0306766 0.199385 0.0994528 -0.0298044 0.0698642 0.110435 
-0.0261031 0.0594314 0.116121 -0.0630294 0.127371 0.115764 -0.109689 0.192605 0.113557 
-0.0187462 0.199162 0.0992161 -0.0479247 0.151703 0.125241 -0.0503146 0.185797 0.122936 
-0.131924 0.197137 0.121591 -0.0821038 0.124377 0.132131 -0.0789409 0.15977 0.13563 
-0.119107 0.17426 0.130433 -0.0854853 0.172256 0.129752 -0.0746136 0.192548 0.128427 
-0.126986 0.0694465 0.140921 -0.0938353 0.0891161 0.141536 -0.134854 0.19074 0.139738 
-0.102529 0.0573313 0.142924 -0.00416829 0.069917 0.144887 -0.0884448 0.102901 0.143566 
-0.0473795 0.167766 0.144565 -0.113678 0.199717 0.0872462 -0.113679 0.199717 0.0910846 
-0.0187462 0.199162 0.0955561 -0.10984 0.199717 0.0910847 -0.10984 0.199717 0.0872464 
-0.0407092 0.211924 -0.106107 -0.0346758 0.211924 -0.106107 -0.0407092 0.224711 -0.106107 
-0.0346758 0.224711 -0.106107 -0.113997 0.258864 -0.111597 -0.101977 0.258875 -0.111597 
-0.114013 0.296339 -0.11169 -0.101993 0.29635 -0.11169 -0.0407092 0.211924 -0.100074 
-0.0346758 0.211924 -0.100074 -0.0407092 0.224711 -0.100074 -0.0346758 0.224711 -0.100074 
-0.113997 0.258927 -0.0995773 -0.101977 0.258938 -0.0995774 -0.114013 0.296402 -0.09967 
-0.101993 0.296413 -0.0996699 -0.0837259 0.207132 -0.0914258 -0.0887616 0.207132 -0.0914258 
-0.0887616 0.215805 -0.0914258 -0.0837259 0.215805 -0.0914258 -0.0887616 0.207132 -0.0863901 
-0.0837259 0.207132 -0.0863901 -0.0887616 0.215805 -0.0863901 -0.0837259 0.215805 -0.0863901 
-0.0553647 0.224686 -0.0884673 -0.0467372 0.224686 -0.0884673 -0.0553647 0.248173 -0.0884715 
-0.0467372 0.248173 -0.0884715 -0.0612165 0.208527 -0.076071 -0.0666512 0.208522 -0.0760648 
-0.0612236 0.218845 -0.0761009 -0.0666584 0.21884 -0.0760946 -0.0553647 0.22469 -0.0798395 
-0.0467372 0.22469 -0.0798395 -0.0553647 0.248174 -0.0798443 -0.0467372 0.248174 -0.0798443 
-0.0612102 0.208548 -0.0706363 -0.066645 0.208543 -0.07063 -0.0612174 0.218866 -0.0706661 
-0.0666522 0.218861 -0.0706599 -0.119377 0.222188 -0.0750305 -0.111348 0.22219 -0.0750982 
-0.0229817 0.2236 -0.0680257 -0.0147532 0.223558 -0.0679914 -0.11938 0.243204 -0.0750368 
-0.111351 0.243206 -0.0751045 -0.0229206 0.245439 -0.0680709 -0.0146922 0.245397 -0.0680366 
-0.119309 0.222192 -0.0670016 -0.11128 0.222194 -0.0670693 -0.0149664 0.223761 -0.0601099 
-0.119312 0.243209 -0.0670079 -0.111283 0.24321 -0.0670756 -0.0858006 0.213322 -0.0527546 
-0.0793681 0.213322 -0.0527546 -0.023016 0.223631 -0.0597973 -0.01597 0.219595 -0.0568612 
-0.00851913 0.219768 -0.0571844 -0.0858006 0.227757 -0.0527573 -0.0793681 0.227757 -0.0527573 
-0.0575757 0.22884 -0.0541275 -0.0483496 0.22884 -0.0541275 -0.0161509 0.239137 -0.0572193 
-0.00852122 0.239138 -0.0571954 -0.022955 0.24547 -0.0598425 -0.0147266 0.245428 -0.0598082 
-0.0575757 0.254794 -0.0541275 -0.0483496 0.254794 -0.0541275 -0.0858006 0.213326 -0.046322 
-0.0793681 0.213326 -0.046322 -0.0161727 0.219774 -0.0495784 -0.00854289 0.219775 -0.0495546 
-0.0858006 0.227757 -0.0463249 -0.0793681 0.227757 -0.0463249 -0.0575757 0.22884 -0.0449013 
-0.0483496 0.22884 -0.0449013 -0.0161748 0.239144 -0.0495895 -0.00854497 0.239146 -0.0495657 
-0.0575757 0.254794 -0.0449013 -0.0483496 0.254794 -0.0449013 -0.1305 0.210994 -0.0337119 
-0.124666 0.210994 -0.0337119 -0.1305 0.222958 -0.0337118 -0.124666 0.222958 -0.0337118 
-0.1305 0.210994 -0.027878 -0.124666 0.210994 -0.027878 -0.1305 0.222958 -0.0278779 
-0.124666 0.222958 -0.0278779 -0.0211286 0.222076 -0.0168147 -0.0134604 0.222026 -0.0155266 
-0.0214263 0.243054 -0.0158545 -0.0134786 0.243042 -0.0155355 -0.0187381 0.222459 -0.00974944 
-0.0134757 0.222036 -0.00752643 -0.0184852 0.243638 -0.0106691 -0.0135753 0.243048 -0.00750667 
-0.0240179 0.221301 -0.00510336 -0.0297486 0.22171 -0.0071936 -0.0294442 0.241845 -0.00730464 
-0.0245958 0.241224 -0.00407207 -0.0294456 0.221726 0.000725669 -0.0218026 0.221657 0.00179106 
-0.0294442 0.241847 0.000724216 -0.021435 0.241839 0.000779603 -0.0850847 0.207541 0.0221283 
-0.0893222 0.20754 0.0221345 -0.0850838 0.202161 0.0221283 -0.0893212 0.20216 0.0221345 
-0.0850785 0.207541 0.0263658 -0.089316 0.20754 0.026372 -0.0850776 0.202161 0.0263658 
-0.0893151 0.20216 0.0263719 -0.100704 0.209702 0.036041 -0.10514 0.209701 0.0316034 
-0.105141 0.209702 0.0360404 -0.100703 0.209701 0.031604 -0.100703 0.203498 0.0316058 
-0.100703 0.203499 0.0360428 -0.10514 0.203498 0.0360422 -0.10514 0.203497 0.0316052 
-0.069494 0.216092 0.0343569 -0.0626624 0.216092 0.0343569 -0.069494 0.232171 0.0343569 
-0.0626624 0.232171 0.0343569 -0.0181363 0.287358 0.0308721 -0.00591826 0.286416 0.0310408 
-0.0172564 0.299576 0.0315082 -0.00503819 0.298634 0.0316771 -0.069494 0.216092 0.0411884 
-0.0626624 0.216092 0.0411884 -0.069494 0.232171 0.0411884 -0.0626624 0.232171 0.0411884 
-0.0183308 0.286581 0.0430905 -0.00611275 0.285639 0.0432593 -0.0174509 0.298799 0.0437266 
-0.0052327 0.297857 0.0438954 -0.101558 0.207053 0.0519006 -0.101557 0.207053 0.0466654 
-0.0963231 0.207053 0.0519018 -0.0963219 0.207052 0.0466666 -0.00248269 0.209561 0.0515432 
-0.00247755 0.203353 0.0515421 -0.101558 0.21625 0.0519001 -0.101556 0.21625 0.0466649 
-0.0963225 0.21625 0.0519013 -0.0963213 0.21625 0.0466661 -0.0429579 0.209455 0.0562338 
[...]
POINT_DATA 785
FIELD FieldData 8
id 1 785 int
3781 3801 3994 3744 3970 3884 3894 3745 2648 
3730 3749 2739 2901 3917 3952 3937 3726 3907 
2755 3931 3785 3823 3802 3024 3023 3296 3981 
3773 3359 3844 3586 3852 3908 3180 3987 3959 
3403 3685 3943 3903 3830 3960 3808 3976 3757 
3966 3716 3738 3932 3242 3877 3949 3360 3731 
3727 3873 3243 3918 3814 2962 3135 3896 3961 
3758 3809 3519 3853 2961 2824 2749 3939 3244 
3774 3951 3878 3995 3297 3786 3919 3787 2482 
3920 3686 3895 3885 3182 3938 3879 3815 2823 
3953 3925 3746 3975 3971 3845 2902 3831 3720 
3962 3688 3982 3996 3825 3782 3950 3988 3836 
3803 3940 3587 3909 3747 3847 3810 3775 3906 
3955 3989 3631 3788 3728 3911 3854 3846 2826 
3768 3760 3406 3864 3859 3863 3461 3761 3871 
3910 3765 3721 3954 3941 3325 3904 3136 2550 
3776 3898 4423 4422 2509 3997 3886 2649 3754 
3977 3963 3933 4419 3874 3984 3887 3632 3837 
3921 3897 3880 3729 3875 3722 3689 3848 3956 
3690 4387 4388 4418 4392 4391 4226 4230 4228 
4232 4018 4022 4020 4024 4227 4231 4229 4225 
4019 4023 4021 4017 4334 4330 4332 4336 4331 
4335 4333 4329 4042 4046 4044 4048 4286 4282 
4288 4284 4043 4047 4045 4041 4287 4283 4281 
4285 4084 4088 4058 4062 4086 4090 4060 4064 
4085 4089 4063 4087 4091 4194 4198 4059 4138 
4142 4196 4200 4026 4030 4140 4144 4061 4057 
4028 4032 4195 4199 4139 4143 4197 4193 4027 
4031 4141 4137 4029 4025 4258 4262 4260 4264 
4259 4263 4261 4257 4092 4096 4094 4074 4093 
4075 4095 4073 4080 4076 4078 4082 4077 4081 
4079 4083 4368 4364 4366 4362 4361 4365 4367 
4363 4345 4348 4349 4352 4350 4351 4347 4346 
4162 4166 4164 4168 4010 4014 4012 4016 4163 
4167 4165 4161 4011 4015 4013 4009 4315 4314 
4319 4318 4356 4354 4317 4316 4313 4320 4266 
4270 4357 4355 4146 4150 4272 4268 4034 4038 
4148 4152 4036 4040 4002 4006 4004 4008 4271 
4267 4115 4119 4147 4151 4265 4269 4035 4039 
4117 4121 4149 4145 4068 4037 4072 4033 4154 
4158 4116 4120 4066 4067 4071 4070 4156 4160 
4118 4122 4069 4065 4003 4007 4005 4001 4234 
4238 4155 4159 4214 4210 4236 4240 4123 4127 
4216 4212 4157 4153 4125 4114 4235 4239 4215 
4211 4237 4233 4124 4128 4209 4213 4126 4113 
4290 4294 4179 4178 4183 4182 4292 4296 4181 
4180 4184 4291 4295 4340 4338 4344 4342 4293 
4289 4177 4341 4339 4337 4343 4050 4052 4051 
4053 4385 4386 4389 4398 4397 4390 4393 4394 
4400 4424 4417 4399 4421 4420 4396 4395 3899 
3849 3927 3161 3876 3905 3942 3818 3934 3789 
3811 3440 3900 3957 3972 3838 3762 3860 3784 
3741 3717 3978 3964 3025 3965 2927 3755 3945 
3922 3985 3944 3405 3867 2989 3858 3796 3666 
2591 3856 2481 3778 3711 2867 4431 3888 3868 
3869 3819 3441 3826 3737 3665 3712 3805 3812 
3766 3208 3770 3806 3881 3691 3386 4430 2748 
3889 3162 3840 2483 3850 3797 3891 3262 3841 
4427 4426 3913 3613 3723 2751 3324 3851 3777 
3614 3793 3973 3929 3928 3842 3771 2750 3890 
3991 3946 3990 3714 3914 3763 3999 3915 3882 
3385 3791 3442 3912 3779 2690 3263 3870 3764 
3923 3732 3901 3742 3820 3718 2790 3828 3668 
3084 2963 3692 2484 3979 3974 3799 3986 3916 
3790 3835 3998 3667 3993 3924 2928 3947 3750 
3518 3739 3715 3719 3892 3821 3751 4000 3298 
3862 4439 4438 3861 3772 3833 4435 4434 3926 
3857 3443 3958 3968 3893 3843 3733 3798 3983 
3780 3948 3935 3326 3872 3800 3992 3930 2868 
3980 3792 3725 2753 3936 3967 3743 3883 3444 
3969 3693 3902 4298 4302 4369 4376 4372 4373 
4300 4304 4299 4303 4301 4297 4202 4206 4204 
4208 4203 4207 4205 4201 4401 4408 4375 4370 
4405 4404 4371 4374 4407 4432 4425 4406 4429 
4428 4403 4402 4322 4326 4307 4306 4311 4310 
4324 4328 4309 4308 4305 4312 4360 4358 4323 
4327 4325 4321 4353 4359 4380 4384 4186 4190 
4188 4192 4381 4377 4187 4191 4244 4243 4248 
4247 4185 4099 4103 4246 4245 4250 4249 4189 
4101 4105 4100 4104 4102 4106 4218 4222 4252 
4251 4256 4255 4220 4224 4130 4134 4254 4253 
4241 4242 4132 4136 4219 4223 4170 4174 4221 
4217 4131 4135 4172 4176 4133 4129 4171 4175 
4054 4173 4169 4056 4274 4278 4276 4280 4107 
4111 4109 4098 4275 4279 4055 4277 4273 4108 
4112 4049 4110 4097 4409 4416 4412 4413 4378 
4440 4382 4379 4437 4436 4383 4415 4414 4411 
4410 4433 
type 1 785 int
2 2 2 2 2 2 2 2 2 
2 2 2 2 2 2 2 2 2 
2 2 2 2 2 2 2 2 2 
2 2 2 2 2 2 2 2 2 
2 2 2 2 2 2 2 2 2 
2 2 2 2 2 2 2 2 2 
2 2 2 2 2 2 2 2 2 
2 2 2 2 2 2 2 2 2 
2 2 2 2 2 2 2 2 2 
2 2 2 2 2 2 2 2 2 
2 2 2 2 2 2 2 2 2 
2 2 2 2 2 2 2 2 2 
2 2 2 2 2 2 2 2 2 
2 2 2 2 2 2 2 2 2 
2 2 2 2 2 2 2 2 2 
2 2 2 2 2 2 2 2 2 
2 2 2 2 2 2 2 2 2 
2 2 2 2 2 2 2 2 2 
2 2 2 2 2 2 2 2 2 
2 2 2 2 2 2 2 2 2 
2 2 2 2 2 2 2 2 2 
2 2 2 2 2 2 2 2 2 
2 2 2 2 2 2 2 2 2 
2 2 2 2 2 2 2 2 2 
2 2 2 2 2 2 2 2 2 
2 2 2 2 2 2 2 2 2 
2 2 2 2 2 2 2 2 2 
2 2 2 2 2 2 2 2 2 
2 2 2 2 2 2 2 2 2 
2 2 2 2 2 2 2 2 2 
2 2 2 2 2 2 2 2 2 
2 2 2 2 2 2 2 2 2 
2 2 2 2 2 2 2 2 2 
2 2 2 2 2 2 2 2 2 
2 2 2 2 2 2 2 2 2 
2 2 2 2 2 2 2 2 2 
2 2 2 2 2 2 2 2 2 
2 2 2 2 2 2 2 2 2 
2 2 2 2 2 2 2 2 2 
2 2 2 2 2 2 2 2 2 
2 2 2 2 2 2 2 2 2 
2 2 2 2 2 2 2 2 2 
2 2 2 2 2 2 2 2 2 
2 2 2 2 2 2 2 2 2 
2 2 2 2 2 2 2 2 2 
2 2 2 2 2 2 2 2 2 
2 2 2 2 2 2 2 2 2 
2 2 2 2 2 2 2 2 2 
2 2 2 2 2 2 2 2 2 
2 2 2 2 2 2 2 2 2 
2 2 2 2 2 2 2 2 2 
2 2 2 2 2 2 2 2 2 
2 2 2 2 2 2 2 2 2 
2 2 2 2 2 2 2 2 2 
2 2 2 2 2 2 2 2 2 
2 2 2 2 2 2 2 2 2 
2 2 2 2 2 2 2 2 2 
2 2 2 2 2 2 2 2 2 
2 2 2 2 2 2 2 2 2 
2 2 2 2 2 2 2 2 2 
2 2 2 2 2 2 2 2 2 
2 2 2 2 2 2 2 2 2 
2 2 2 2 2 2 2 2 2 
2 2 2 2 2 2 2 2 2 
2 2 2 2 2 2 2 2 2 
2 2 2 2 2 2 2 2 2 
2 2 2 2 2 2 2 2 2 
2 2 2 2 2 2 2 2 2 
2 2 2 2 2 2 2 2 2 
2 2 2 2 2 2 2 2 2 
2 2 2 2 2 2 2 2 2 
2 2 2 2 2 2 2 2 2 
2 2 2 2 2 2 2 2 2 
2 2 2 2 2 2 2 2 2 
2 2 2 2 2 2 2 2 2 
2 2 2 2 2 2 2 2 2 
2 2 2 2 2 2 2 2 2 
2 2 2 2 2 2 2 2 2 
2 2 2 2 2 2 2 2 2 
2 2 2 2 2 2 2 2 2 
2 2 2 2 2 2 2 2 2 
2 2 2 2 2 2 2 2 2 
2 2 2 2 2 2 2 2 2 
2 2 2 2 2 2 2 2 2 
2 2 2 2 2 2 2 2 2 
2 2 2 2 2 2 2 2 2 
2 2 2 2 2 2 2 2 2 
2 2 
i 3 785 int
0 0 0 0 0 0 0 0 0 
0 0 0 0 0 0 0 0 0 
0 0 0 0 0 0 0 0 0 
0 0 0 0 0 0 0 0 0 
0 0 0 0 0 0 0 0 0 
0 0 0 0 0 0 0 0 0 
0 0 0 0 0 0 0 0 0 
0 0 0 0 0 0 0 0 0 
0 0 0 0 0 0 0 0 0 
0 0 0 0 0 0 0 0 0 
0 0 0 0 0 0 0 0 0 
0 0 0 0 0 0 0 0 0 
0 0 0 0 0 0 0 0 0 
0 0 0 0 0 0 0 0 0 
0 0 0 0 0 0 0 0 0 
0 0 0 0 0 0 0 0 0 
0 0 0 0 0 0 0 0 0 
0 0 0 0 0 0 0 0 0 
0 0 0 0 0 0 0 0 0 
0 0 0 0 0 0 0 0 0 
0 0 0 0 0 0 0 0 0 
0 0 0 0 0 0 0 0 0 
0 0 0 0 0 0 0 0 0 
0 0 0 0 0 0 0 0 0 
0 0 0 0 0 0 0 0 0 
0 0 0 0 0 0 0 0 0 
0 0 0 0 0 0 0 0 0 
0 0 0 0 0 0 0 0 0 
0 0 0 0 0 0 0 0 0 
0 0 0 0 0 0 0 0 0 
0 0 0 0 0 0 0 0 0 
0 0 0 0 0 0 0 0 0 
0 0 0 0 0 0 0 0 0 
0 0 0 0 0 0 0 0 0 
0 0 0 0 0 0 0 0 0 
0 0 0 0 0 0 0 0 0 
0 0 0 0 0 0 0 0 0 
0 0 0 0 0 0 0 0 0 
0 0 0 0 0 0 0 0 0 
0 0 0 0 0 0 0 0 0 
0 0 0 0 0 0 0 0 0 
0 0 0 0 0 0 0 0 0 
0 0 0 0 0 0 0 0 0 
0 0 0 0 0 0 0 0 0 
0 0 0 0 0 0 0 0 0 
0 0 0 0 0 0 0 0 0 
0 0 0 0 0 0 0 0 0 
0 0 0 0 0 0 0 0 0 
0 0 0 0 0 0 0 0 0 
0 0 0 0 0 0 0 0 0 
0 0 0 0 0 0 0 0 0 
0 0 0 0 0 0 0 0 0 
0 0 0 0 0 0 0 0 0 
0 0 0 0 0 0 0 0 0 
0 0 0 0 0 0 0 0 0 
0 0 0 0 0 0 0 0 0 
0 0 0 0 0 0 0 0 0 
0 0 0 0 0 0 0 0 0 
0 0 0 0 0 0 0 0 0 
0 0 0 0 0 0 0 0 0 
0 0 0 0 0 0 0 0 0 
0 0 0 0 0 0 0 0 0 
0 0 0 0 0 0 0 0 0 
0 0 0 0 0 0 0 0 0 
0 0 0 0 0 0 0 0 0 
0 0 0 0 0 0 0 0 0 
0 0 0 0 0 0 0 0 0 
0 0 0 0 0 0 0 0 0 
0 0 0 0 0 0 0 0 0 
0 0 0 0 0 0 0 0 0 
0 0 0 0 0 0 0 0 0 
0 0 0 0 0 0 0 0 0 
0 0 0 0 0 0 0 0 0 
0 0 0 0 0 0 0 0 0 
0 0 0 0 0 0 0 0 0 
0 0 0 0 0 0 0 0 0 
0 0 0 0 0 0 0 0 0 
0 0 0 0 0 0 0 0 0 
0 0 0 0 0 0 0 0 0 
0 0 0 0 0 0 0 0 0 
0 0 0 0 0 0 0 0 0 
0 0 0 0 0 0 0 0 0 
0 0 0 0 0 0 0 0 0 
0 0 0 0 0 0 0 0 0 
0 0 0 0 0 0 0 0 0 
0 0 0 0 0 0 0 0 0 
0 0 0 0 0 0 0 0 0 
0 0 0 0 0 0 0 0 0 
0 0 0 0 0 0 0 0 0 
0 0 0 0 0 0 0 0 0 
0 0 0 0 0 0 0 0 0 
0 0 0 0 0 0 0 0 0 
0 0 0 0 0 0 0 0 0 
0 0 0 0 0 0 0 0 0 
0 0 0 0 0 0 0 0 0 
0 0 0 0 0 0 0 0 0 
0 0 0 0 0 0 0 0 0 
0 0 0 0 0 0 0 0 0 
0 0 0 0 0 0 0 0 0 
0 0 0 0 0 0 0 0 0 
0 0 0 0 0 0 0 0 0 
0 0 0 0 0 0 0 0 0 
0 0 0 0 0 0 0 0 0 
0 0 0 0 0 0 0 0 0 
0 0 0 0 0 0 0 0 0 
0 0 0 0 0 0 0 0 0 
0 0 0 0 0 0 0 0 0 
0 0 0 0 0 0 0 0 0 
0 0 0 0 0 0 0 0 0 
0 0 0 0 0 0 0 0 0 
0 0 0 0 0 0 0 0 0 
0 0 0 0 0 0 0 0 0 
0 0 0 0 0 0 0 0 0 
0 0 0 0 0 0 0 0 0 
0 0 0 0 0 0 0 0 0 
0 0 0 0 0 0 0 0 0 
0 0 0 0 0 0 0 0 0 
0 0 0 0 0 0 0 0 0 
0 0 0 0 0 0 0 0 0 
0 0 0 0 0 0 0 0 0 
0 0 0 0 0 0 0 0 0 
0 0 0 0 0 0 0 0 0 
0 0 0 0 0 0 0 0 0 
0 0 0 0 0 0 0 0 0 
0 0 0 0 0 0 0 0 0 
0 0 0 0 0 0 0 0 0 
0 0 0 0 0 0 0 0 0 
0 0 0 0 0 0 0 0 0 
0 0 0 0 0 0 0 0 0 
0 0 0 0 0 0 0 0 0 
0 0 0 0 0 0 0 0 0 
0 0 0 0 0 0 0 0 0 
0 0 0 0 0 0 0 0 0 
0 0 0 0 0 0 0 0 0 
0 0 0 0 0 0 0 0 0 
0 0 0 0 0 0 0 0 0 
0 0 0 0 0 0 0 0 0 
0 0 0 0 0 0 0 0 0 
0 0 0 0 0 0 0 0 0 
0 0 0 0 0 0 0 0 0 
0 0 0 0 0 0 0 0 0 
0 0 0 0 0 0 0 0 0 
0 0 0 0 0 0 0 0 0 
0 0 0 0 0 0 0 0 0 
0 0 0 0 0 0 0 0 0 
0 0 0 0 0 0 0 0 0 
0 0 0 0 0 0 0 0 0 
0 0 0 0 0 0 0 0 0 
0 0 0 0 0 0 0 0 0 
0 0 0 0 0 0 0 0 0 
0 0 0 0 0 0 0 0 0 
0 0 0 0 0 0 0 0 0 
0 0 0 0 0 0 0 0 0 
0 0 0 0 0 0 0 0 0 
0 0 0 0 0 0 0 0 0 
0 0 0 0 0 0 0 0 0 
0 0 0 0 0 0 0 0 0 
0 0 0 0 0 0 0 0 0 
0 0 0 0 0 0 0 0 0 
0 0 0 0 0 0 0 0 0 
0 0 0 0 0 0 0 0 0 
0 0 0 0 0 0 0 0 0 
0 0 0 0 0 0 0 0 0 
0 0 0 0 0 0 0 0 0 
0 0 0 0 0 0 0 0 0 
0 0 0 0 0 0 0 0 0 
0 0 0 0 0 0 0 0 0 
0 0 0 0 0 0 0 0 0 
0 0 0 0 0 0 0 0 0 
0 0 0 0 0 0 0 0 0 
0 0 0 0 0 0 0 0 0 
0 0 0 0 0 0 0 0 0 
0 0 0 0 0 0 0 0 0 
0 0 0 0 0 0 0 0 0 
0 0 0 0 0 0 0 0 0 
0 0 0 0 0 0 0 0 0 
0 0 0 0 0 0 0 0 0 
0 0 0 0 0 0 0 0 0 
0 0 0 0 0 0 0 0 0 
0 0 0 0 0 0 0 0 0 
0 0 0 0 0 0 0 0 0 
0 0 0 0 0 0 0 0 0 
0 0 0 0 0 0 0 0 0 
0 0 0 0 0 0 0 0 0 
0 0 0 0 0 0 0 0 0 
0 0 0 0 0 0 0 0 0 
0 0 0 0 0 0 0 0 0 
0 0 0 0 0 0 0 0 0 
0 0 0 0 0 0 0 0 0 
0 0 0 0 0 0 0 0 0 
0 0 0 0 0 0 0 0 0 
0 0 0 0 0 0 0 0 0 
0 0 0 0 0 0 0 0 0 
0 0 0 0 0 0 0 0 0 
0 0 0 0 0 0 0 0 0 
0 0 0 0 0 0 0 0 0 
0 0 0 0 0 0 0 0 0 
0 0 0 0 0 0 0 0 0 
0 0 0 0 0 0 0 0 0 
0 0 0 0 0 0 0 0 0 
0 0 0 0 0 0 0 0 0 
0 0 0 0 0 0 0 0 0 
0 0 0 0 0 0 0 0 0 
0 0 0 0 0 0 0 0 0 
0 0 0 0 0 0 0 0 0 
0 0 0 0 0 0 0 0 0 
0 0 0 0 0 0 0 0 0 
0 0 0 0 0 0 0 0 0 
0 0 0 0 0 0 0 0 0 
0 0 0 0 0 0 0 0 0 
0 0 0 0 0 0 0 0 0 
0 0 0 0 0 0 0 0 0 
0 0 0 0 0 0 0 0 0 
0 0 0 0 0 0 0 0 0 
0 0 0 0 0 0 0 0 0 
0 0 0 0 0 0 0 0 0 
0 0 0 0 0 0 0 0 0 
0 0 0 0 0 0 0 0 0 
0 0 0 0 0 0 0 0 0 
0 0 0 0 0 0 0 0 0 
0 0 0 0 0 0 0 0 0 
0 0 0 0 0 0 0 0 0 
0 0 0 0 0 0 0 0 0 
0 0 0 0 0 0 0 0 0 
0 0 0 0 0 0 0 0 0 
0 0 0 0 0 0 0 0 0 
0 0 0 0 0 0 0 0 0 
0 0 0 0 0 0 0 0 0 
0 0 0 0 0 0 0 0 0 
0 0 0 0 0 0 0 0 0 
0 0 0 0 0 0 0 0 0 
0 0 0 0 0 0 0 0 0 
0 0 0 0 0 0 0 0 0 
0 0 0 0 0 0 0 0 0 
0 0 0 0 0 0 0 0 0 
0 0 0 0 0 0 0 0 0 
0 0 0 0 0 0 0 0 0 
0 0 0 0 0 0 0 0 0 
0 0 0 0 0 0 0 0 0 
0 0 0 0 0 0 0 0 0 
0 0 0 0 0 0 0 0 0 
0 0 0 0 0 0 0 0 0 
0 0 0 0 0 0 0 0 0 
0 0 0 0 0 0 0 0 0 
0 0 0 0 0 0 0 0 0 
0 0 0 0 0 0 0 0 0 
0 0 0 0 0 0 0 0 0 
0 0 0 0 0 0 0 0 0 
0 0 0 0 0 0 0 0 0 
0 0 0 0 0 0 0 0 0 
0 0 0 0 0 0 0 0 0 
0 0 0 0 0 0 0 0 0 
0 0 0 0 0 0 0 0 0 
0 0 0 0 0 0 0 0 0 
0 0 0 0 0 0 0 0 0 
0 0 0 0 0 0 0 0 0 
0 0 0 0 0 0 0 0 0 
0 0 0 0 0 0 0 0 0 
0 0 0 0 0 0 0 0 0 
0 0 0 0 0 0 0 0 0 
0 0 0 0 0 0 0 0 0 
0 0 0 0 0 0 
v 3 785 double
0.0080156891962 -0.0015029605931 0.004447886628 0.010048934566 -0.00070430313784 0.0034683114765 -0.015970077835 0.15166809512 0.0078683031147 
0.0084999301845 0.1323890659 0.0081926522313 -0.13317801248 0.16221021249 0.0070055395523 0.0041098429884 0.30328549985 0.0085481915591 
0.0046274359853 0.008066801115 -0.0032981339191 -0.0056303209371 0.0085283445581 0.016039859049 -0.027173646627 0.011902077028 0.021408443641 
-0.067016782723 0.05887268572 -0.088471391057 -0.19048707261 0.037453699347 -0.044591951551 0.0086390268809 0.038845535794 -0.0015567670795 
0.019798951085 0.040401127349 0.0076420378047 -0.078830096885 0.05744859893 0.00019912973901 -0.073359751146 0.048740936439 0.033533506534 
0.00042695319134 0.13846042764 0.029105660503 0.088754276994 0.22662720955 0.01755179333 0 0.410001241 0 
-0.015825932323 -0.0093599622889 0.054880867859 -0.055110835015 0.016838623604 0.044337729087 -0.021953360345 0.025884201396 0.04599242959 
-0.027682094838 0.035560805087 0.07204171858 -0.040956546694 0.26237529859 -0.077021290032 0.012445841211 0.010247161759 0.022377678425 
-0.18057624424 -0.049283336929 -0.078130502795 0.012718550083 0.067616469755 0.01425317236 0.096087284017 0.12261288527 -0.004294039915 
-0.046543241901 0.073906791384 0.057776194531 -0.097613623005 0.14261836488 -0.069878233524 -0.023837693753 0.013424326694 0.030482934101 
-0.052806535397 0.024323413529 0.073682984456 -0.024108631974 0.052866387327 -0.0092589620461 -0.067244853967 0.04522047833 -0.011281584556 
-0.005644904192 0.11634111591 0.004857108426 -0.031250205073 0.21919385107 0.082559184695 -0.00066328633309 0.27334262606 0.093316999735 
-0.0096575554909 0.27005267014 0.0080604148417 0.017418324533 0.057616216922 -0.030352324845 0.010421709988 0.032597662155 0.089304931032 
0.035121297983 0.12847363527 0.096812815135 -0.02568388976 0.17898130461 0.043235618101 0.049970442685 -0.065324642116 0.045880628903 
-0.013011560337 0.21057775716 -0.067361238852 -0.00010155981897 0.4026845298 0.00010091191765 0.17906924697 0.04465336239 0.12954131523 
-0.19555073313 0.025642988905 -0.073980851181 0.084560273476 0.0049494460269 0.023097140815 -0.29508440245 -0.071096543414 -0.22995170811 
-0.0032792434209 0.15987574977 -0.11366743156 8.7304082862e-05 0.05658216547 0.0490846904 -0.051741169069 0.04058371722 -0.053836692909 
0 0.39875905054 0 -0.1093329276 0.013073293453 -0.054392005946 -0.10514529648 0.01736526256 0.032910920883 
-0.023683525094 0.038479039595 0.077669425022 -0.041178332009 0.14957725344 0.14796284926 0.0073616794846 0.22860097262 0.0056379145434 
0.015727314557 0.021455075493 -0.0024677751594 0.12805066387 0.097112908791 0.070525714734 -0.0039167831326 0.051254836739 -0.001557137884 
0.011388376557 0.041364487349 -0.11565082641 0.042602169189 0.089323789222 -0.065956124659 0.095677381331 0.0044200649861 -0.086041273012 
0.21273066105 0.083784470045 0.0040210919325 0.088817694295 0.1124998154 -0.053149249242 -0.081077584478 0.27179021998 -0.19453844851 
0.021593665187 0.0095357454859 0.083271952659 0.0720265258 0.092481050782 0.10567728676 0.13721431181 0.10181133851 -0.021435361436 
-0.035862658324 0.090291244517 0.064308977049 -0.016476201133 0.099454444818 -0.084306564822 -0.011140416409 0.097767829241 -0.12921837017 
0.1287683514 0.19121853907 0.11076579337 0.086954209449 0.2526704874 -0.16366621469 0 0.39904491296 0 
0.1362875538 0.039257522085 -0.0091534098264 0.029577089408 0.051621073356 0.036709279218 0.068650783752 0.018026213225 0.060475464125 
0.13889610943 -0.022972110717 0.059703086428 0.10344903995 0.054815171856 -0.0038259629395 -0.019593090008 0.057115403233 0.099738465183 
0.028538407798 0.025056636625 -0.064268107381 -0.082935369571 0.12454513688 0.22031739751 0 0.38773520475 0 
-0.040935584861 0.0080659946873 -0.037605969439 -0.05241557277 -7.6474465414e-05 -0.038101718797 0.031590655792 0.043572963739 -0.02529784089 
-0.033229108723 0.13146619811 -0.072439225811 0.0094198569489 0.15103026516 -0.022541178981 0.048239276178 0.099225294711 0.24497616456 
-0.15104217532 0.21350433729 -0.08847513098 -0.0027343479842 0.020591615742 0.016982238916 -0.02456028625 0.011359228832 -0.0113720337 
0.027032685635 0.021794619309 -0.024559164227 -0.079995245439 -0.017084149868 -0.024509996072 -0.018713004647 0.38875185117 7.8913229596e-15 
-0.010215913331 0.035447076697 0.029717211007 0.014928890544 0.04441030584 -0.041816267398 -0.047772226234 0.0132061549 0.03151757883 
0.080529813377 0.0057628936695 0.0071294393731 0.0050133738183 0.03415893043 0.0051985059679 -0.0096028627141 0.01633234848 0.054694933923 
-0.0061600299512 0.11429591419 0.13432692073 -0.0019492195281 0.06894765178 0.027024499287 0.049403257311 0.043097090476 -0.013412633032 
0.017297158063 0.051523199259 0.034196204277 -0.029513261594 0.16173266479 0.02841832475 0.058714015235 0.0017270508604 -0.0052240249124 
-0.0039913111495 0.045910097796 0.029473773607 0.058087612515 0.020893658911 0.057573748421 0.043123495637 0.038606691854 0.058239888712 
-0.093883439559 0.14252171153 0.082969879669 0.045861773211 0.010416166083 0.066043061475 -0.029110559063 0.018207847277 -0.076876075613 
0.067777486143 0.0035590079529 0.087528334108 -0.021958819501 0.054191597684 0.048298013441 -0.19451755495 0.039668183639 -0.064885900376 
0.024759942221 0.078324211804 0.044473428344 -0.00052740355422 0.38710693906 -0.0011288573072 -0.046054797591 0.035397971386 0.092164701031 
0.040692486761 0.040028993819 0.016705036457 -0.028734807798 0.24194419456 -0.0010331898798 -0.0033120346244 0.036987221945 0.014520019751 
-0.01446684177 0.032878853391 -0.0024533046815 0.13707801014 0.10385176188 0.11392848556 -0.0016610994383 0.29654940525 0.0087496036546 
0.015763933914 0.0065948336356 0.094849352011 -0.055878085168 0.018552676409 0.077319089015 0.0058662362083 -0.0047575354982 0.1205492242 
0.021557993965 0.0033648425129 0.078175290305 0.012190777852 0.32929773123 0.012633784709 0.048787878444 0.025521855283 0.10157198777 
0.048689639876 0.084903789202 0.047570047855 -0.018697854525 0.19836571032 0.034234384001 -0.053223499948 -0.082292554633 0.071815865633 
-0.13645977946 0.12244416595 0.087249181893 -0.076416026534 0.17725342488 -0.024615689046 0.047994318171 0.039418765254 0.071322416347 
-0.012212897362 0.075823784745 -0.18361467497 0.031131950044 0.032706997154 0.10031977015 -0.05154172184 0.10765359284 0.035977243928 
0.044804293718 0.32049728826 -0.0062287931832 -0.00044574958215 0.029243049089 0.10201140501 -0.14684183204 0.0079436499743 -0.079768840288 
0.08060329694 0.0325350987 0.01274380369 0.0002814165965 0.39586236908 -0.0042450652735 3.3821736169e-05 0.38760646504 3.3821736169e-05 
3.3821736169e-05 0.38760646504 -3.3821736169e-05 -0.0033082998542 0.13377592098 -0.0033247496929 0.033991363402 0.19247764267 -0.017820487125 
0.0012503121485 0.38702661056 -0.005926866043 -0.0046666478446 0.28784143851 -0.0046798590522 0.10242992302 0.085288386905 0.0090130720863 
0.084445824934 -0.027829691904 0.02430493986 -0.018673129003 0.22509155007 0.014510142177 0 0.3987994427 6.9043932791e-06 
-3.3821736169e-05 0.38760646504 3.3821736169e-05 0.042256730961 0.27150018908 0.1254322865 -0.00032362647397 0.39932044177 -0.0012764948875 
0.00051441565056 0.39864167423 0.0017178022421 -0.077949132161 0.1640541936 -0.025301185442 -0.019718467175 0.29448520505 0.12092734083 
0.020188320678 0.34687093157 -0.00040929342903 0.086053560792 0.32893311383 -0.0017445639745 -0.027545708121 0.38422685286 0.11030070993 
0.11995622452 0.011863667935 0.0047441828118 -0.066149991525 0.065765809604 -0.020818425339 -0.22880268682 0.26789886558 -0.019808350501 
-0.078040903224 0.012317233288 -0.0024669848271 0.13835760544 0.04733325279 -0.0010310392601 -0.057336234664 0.064076704248 -0.023730783112 
0.0029908071981 0.23661087759 -0.014510026365 -0.028215275413 0.35947957177 -0.035577569955 -0.028250761483 0.35957778467 0.020161954583 
-3.3821736169e-05 0.38760646504 -3.3821736169e-05 0.0274883577 0.35958608417 0.020197528661 0.027524271261 0.35948798573 -0.035541751226 
-0.027869684498 0.28402964143 -0.027869684498 0.027869684498 0.28402964143 -0.027869684498 -0.027869684498 0.51390203134 -0.027869684498 
0.027869684498 0.51390203134 -0.027869684498 -0.04125526714 0.39714501683 -0.10814853943 0.014484300369 0.39721888679 -0.10814812224 
-0.041363751989 0.62701657341 -0.10876561409 0.014375274984 0.62709110505 -0.10876690403 -0.027869684498 0.28402964143 0.027869684498 
0.027869684498 0.28402964143 0.027869684498 -0.027869684498 0.51390203134 0.027869684498 0.027869684498 0.51390203134 0.027869684498 
-0.041254969846 0.39756815431 -0.052408258422 0.01448475908 0.39764093675 -0.052409461063 -0.041363410614 0.62743684168 -0.053027349337 
0.014375689687 0.62751246083 -0.053026846719 0.027869684498 0.29502845884 -0.027869684498 -0.027869684498 0.29502845884 -0.027869684498 
-0.027869684498 0.52490084875 -0.027869684498 0.027869684498 0.52490084875 -0.027869684498 -0.027869684498 0.29502845884 0.027869684498 
0.027869684498 0.29502845884 0.027869684498 -0.027869684498 0.52490084875 0.027869684498 0.027869684498 0.52490084875 0.027869684498 
-0.027869684498 0.28399728714 -0.032741089804 0.027869684498 0.28399728714 -0.032741089804 -0.027869684498 0.5138839808 -0.032788350519 