# vtk DataFile Version 5.1
Generated by LIGGGHTS
ASCII
DATASET POLYDATA
POINTS 400 float
-0.064403 0.0553372 -0.144188 -0.144784 0.0688047 -0.144431 -0.109421 0.0641587 -0.143862 
-0.0635052 0.0674932 -0.14363 -0.0509107 0.0609328 -0.143272 -0.0232873 0.0614889 -0.144464 
-0.109254 0.0777503 -0.144673 -0.0232709 0.0726191 -0.143452 -0.0976444 0.0813779 -0.144935 
-0.100812 0.0918983 -0.144831 -0.143996 0.0582398 -0.142485 -0.114104 0.0556498 -0.140532 
-0.0408122 0.0563291 -0.138368 -0.132175 0.0707002 -0.140908 -0.115245 0.0710127 -0.138363 
-0.0119835 0.0700247 -0.139333 -0.10209 0.082436 -0.134242 -0.0511074 0.0906001 -0.138303 
-0.137737 0.0560755 -0.133814 -0.127336 0.0559333 -0.131567 -0.0719258 0.055867 -0.128345 
-0.049266 0.0558383 -0.130435 -0.0611666 0.0576277 -0.127403 -0.056343 0.0705563 -0.133045 
-0.0202701 0.0738731 -0.130426 -0.143081 0.0552603 -0.122343 -0.0414972 0.0582497 -0.124818 
-0.105348 0.0631847 -0.123179 -0.142894 0.068964 -0.130112 -0.0414312 0.068404 -0.124531 
-0.0277835 0.0665801 -0.121905 -0.13753 0.0757977 -0.121396 -0.102367 0.0555103 -0.113273 
-0.0796449 0.0654029 -0.112868 -0.0563887 0.0564103 -0.110008 -0.109624 0.0613331 -0.109185 
-0.0450352 0.0689705 -0.102996 -0.0282281 0.0666293 -0.109862 -0.0141587 0.0644416 -0.108169 
-0.0802131 0.0890863 -0.112401 -0.107478 0.05868 -0.0960215 -0.0564669 0.0630331 -0.0988561 
-0.00921818 0.0592455 -0.100504 -0.144385 0.0684567 -0.0978632 -0.0376925 0.0786794 -0.103091 
-0.00650201 0.0748463 -0.0969808 -0.139042 0.0841375 -0.09641 -0.0779015 0.0614962 -0.0899789 
-0.0430884 0.0626614 -0.085126 -0.0862438 0.0679809 -0.0889079 -0.0320722 0.0578583 -0.088512 
-0.0689602 0.0739537 -0.0871185 -0.105342 0.0570113 -0.0790174 -0.025445 0.0702739 -0.0808012 
-0.103291 0.0983235 -0.0774279 -0.051051 0.0967956 -0.0824424 -0.0559769 0.0614578 -0.0715464 
-0.106286 0.0664579 -0.0748918 -0.0848825 0.0668846 -0.0727564 -0.115325 0.0931415 -0.0710403 
-0.00738101 0.0581493 -0.0623823 -0.117958 0.064781 -0.0625678 -0.0928244 0.0684017 -0.0633811 
-0.0623569 0.0735348 -0.066702 -0.0236667 0.0899275 -0.0603297 -0.103506 0.0708742 -0.0519326 
-0.0569947 0.0748317 -0.0518787 -0.122633 0.0559192 -0.0462642 -0.141196 0.0650417 -0.0466157 
-0.0825843 0.0827295 -0.0478851 -0.0424068 0.0892401 -0.0490482 -0.0121282 0.0906656 -0.0521464 
-0.0529626 0.0981433 -0.0495144 -0.104349 0.0580893 -0.0326997 -0.0684027 0.0601686 -0.038635 
-0.0242899 0.0655004 -0.0377569 -0.127583 0.075196 -0.0307989 -0.0644723 0.076938 -0.0333126 
-0.0290562 0.060458 -0.0264111 -0.077108 0.0656478 -0.0291073 -0.0962179 0.0556572 -0.0196508 
-0.0787648 0.0594568 -0.0182226 -0.0488331 0.0553501 -0.019761 -0.0894923 0.0709361 -0.0168442 
-0.0578132 0.0557474 -0.0110031 -0.0613073 0.0670843 -0.0144761 -0.0807156 0.0629286 -0.00765455 
-0.0791772 0.0733713 -0.00972273 -0.0164475 0.0923455 -0.0110191 -0.0684745 0.085221 -0.0141263 
-0.112728 0.0570306 -0.00447881 -0.0968229 0.0553512 -0.000524543 -0.0405806 0.0619549 -0.00115547 
-0.0879188 0.0712147 -0.00489433 -0.0687153 0.072879 -0.00423299 -0.0260391 0.0921972 -0.00268085 
-0.0684745 0.085221 -0.00364006 -0.112061 0.0549227 0.00645867 -0.0747915 0.0560866 0.00529777 
-0.104968 0.0618165 0.00524811 -0.0956578 0.065551 0.000654849 -0.0850967 0.0627444 0.0015243 
-0.000415463 0.0631013 0.00560925 -0.0770779 0.0714155 0.00247042 -0.0024939 0.0815766 0.00353082 
-0.143296 0.0549437 0.0144086 -0.0861784 0.0563256 0.00954643 -0.0492081 0.0550293 0.0113204 
-0.0217141 0.0590506 0.0147993 -0.135539 0.0601187 0.0092429 -0.0989941 0.0624088 0.0139063 
-0.078344 0.0637601 0.0117485 -0.0611645 0.0656499 0.0121529 -0.0506175 0.0669701 0.00998536 
-0.0317505 0.0616992 0.0146629 -0.116594 0.0633777 0.0110237 -0.0654771 0.0750977 0.00617807 
-0.144928 0.080017 0.00908897 -0.0746545 0.0738428 0.0141498 -0.0199754 0.0799645 0.00927577 
-0.111474 0.0849874 0.00813303 -0.079083 0.0826555 0.0139254 -0.128923 0.0556267 0.0180888 
-0.115109 0.055103 0.017301 -0.0973315 0.0558504 0.0222964 -0.00765137 0.0556227 0.0144389 
-0.116641 0.0649405 0.0220681 -0.070037 0.0642711 0.020113 -0.0051244 0.0645693 0.0214482 
-0.0636229 0.086766 0.0223058 -0.137746 0.0801943 0.0173979 -0.14389 0.0573515 0.0250406 
-0.11208 0.0553925 0.0285815 -0.0502006 0.0558619 0.0220548 -0.144471 0.0668906 0.0285794 
-0.0864631 0.0687023 0.0242944 -0.0162761 0.0693515 0.0244888 -0.137971 0.0720454 0.0228725 
-0.0570629 0.0550996 0.0311869 -0.00898722 0.0608257 0.0313083 -0.102191 0.0701475 0.0362903 
-0.0599465 0.0643301 0.0350309 -0.137949 0.0721506 0.0369847 -0.0425416 0.0825995 0.0368143 
-0.124505 0.062342 0.0438309 -0.0366011 0.0616779 0.0434432 -0.0660782 0.0806058 0.0377727 
-0.128778 0.0783259 0.0426402 -0.089425 0.0854773 0.0448955 -0.0482844 0.0560485 0.0488615 
-0.0996548 0.0733249 0.0496544 -0.0901501 0.123103 0.0489768 -0.114369 0.0593555 0.0553917 
-0.0401407 0.0711502 0.0590509 -0.069135 0.0670688 0.0553639 -0.102759 0.0552799 0.0640971 
-0.0651175 0.0553359 0.0598827 -0.0942807 0.0625228 0.0648938 -0.106768 0.0886879 0.062131 
-0.0515694 0.0973808 0.0621647 -0.086207 0.0573814 0.070566 -0.129974 0.0868379 0.0739502 
-0.139764 0.0905506 0.0708202 -0.0517667 0.0936172 0.073149 -0.0621182 0.0568099 0.0787136 
-0.00499763 0.0594837 0.0797136 -0.112412 0.0696094 0.0809712 -0.0962162 0.0550724 0.0790931 
-0.0820007 0.0600417 0.0886428 -0.041952 0.055919 0.0881477 -0.141346 0.0785826 0.0840536 
-0.0260893 0.083739 0.0829792 -0.120295 0.0909879 0.0836254 -0.11163 0.0611344 0.0918791 
-0.065569 0.0579369 0.0924476 -0.0169162 0.0653252 0.0973861 -0.12123 0.0559613 0.100826 
-0.140335 0.0708644 0.104455 -0.0811979 0.0789732 0.0996855 -0.0287382 0.0706618 0.101395 
-0.0290433 0.0986409 0.101091 -0.0579011 0.065093 0.11169 -0.042166 0.0615581 0.11415 
-0.0288817 0.0635244 0.112703 -0.109689 0.058334 0.113554 -0.0595638 0.0874277 0.113208 
-0.132105 0.0576123 0.12099 -0.0637365 0.0669183 0.120388 -0.0502467 0.0758492 0.123265 
-0.115581 0.0571141 0.130362 -0.125357 0.0589484 0.13056 -0.048566 0.0747905 0.133483 
-0.025431 0.0819504 0.129486 -0.0370034 0.0704356 0.137228 -0.0542892 0.093433 0.14096 
-0.0733555 0.0564185 0.143593 -0.0565991 0.0586796 0.14429 -0.085557 0.0687483 0.14339 
-0.0622966 0.0677024 0.144134 -0.0515959 0.0795024 0.14468 -0.0343944 0.0837678 0.144568 
0.0297454 0.0549004 -0.142963 0.0407614 0.0589713 -0.144775 0.024236 0.0650734 -0.144898 
0.138513 0.0553619 -0.144594 0.105855 0.0681781 -0.144166 0.141864 0.0651234 -0.14465 
0.0229548 0.0763776 -0.144495 0.0468491 0.0813099 -0.144087 0.0126685 0.0549645 -0.138973 
0.0439679 0.0570622 -0.135234 0.131883 0.0581191 -0.13555 0.0133988 0.0648375 -0.140655 
0.0536603 0.0618248 -0.142015 0.123467 0.0658653 -0.134841 0.00580041 0.0761665 -0.140762 
0.0175981 0.0735396 -0.134602 0.131111 0.0739653 -0.139784 0.0358582 0.0558788 -0.129557 
0.0353049 0.0659144 -0.135858 0.0591038 0.0633446 -0.133024 0.143298 0.063506 -0.132472 
0.008342 0.0697242 -0.132922 0.0215991 0.0913399 -0.131608 0.0120122 0.0616419 -0.120708 
0.0230919 0.0575109 -0.125714 0.0494321 0.061349 -0.125848 0.0728891 0.0609219 -0.121252 
0.00829867 0.0721025 -0.121736 0.0280132 0.0741278 -0.125285 0.11968 0.0709706 -0.122783 
0.0478475 0.055101 -0.116102 0.0174592 0.0680026 -0.113646 0.0549924 0.0648655 -0.118146 
0.0266925 0.0728428 -0.113975 0.101181 0.0608984 -0.119686 0.0945081 0.0695911 -0.112526 
0.0280173 0.0598769 -0.111954 0.0381854 0.058045 -0.11144 0.11818 0.0642111 -0.105173 
0.0304488 0.0562055 -0.1013 0.0439741 0.0599302 -0.0977708 0.0534359 0.0555729 -0.102936 
0.0919964 0.0611157 -0.0994982 0.00635652 0.0706094 -0.0973377 0.0356145 0.0648066 -0.101937 
0.0888103 0.0873734 -0.0983805 0.015652 0.0550583 -0.0975806 0.0608788 0.0558321 -0.0957406 
0.136273 0.0595444 -0.0936224 0.0563059 0.0654707 -0.0969642 0.0666672 0.0634247 -0.0938243 
0.0934564 0.0723576 -0.096944 0.0117646 0.0567384 -0.0834748 0.0506345 0.0566107 -0.0891992 
0.0563712 0.0617611 -0.0826915 0.0686123 0.0579652 -0.0858557 0.080324 0.0646436 -0.085874 
0.00162665 0.0638558 -0.0837602 0.0471917 0.0660162 -0.083542 0.106377 0.0581407 -0.0862079 
0.0227667 0.0808338 -0.0890202 0.0910144 0.0795858 -0.0847737 0.0939993 0.0623956 -0.0804521 
0.0235326 0.0622252 -0.0757918 0.0791586 0.0640159 -0.0726839 0.104393 0.0606637 -0.0699127 
0.0630765 0.0732094 -0.0725532 0.0379628 0.0885216 -0.0698659 0.00220132 0.0556219 -0.0605676 
0.0223585 0.0554676 -0.0609738 0.0496678 0.0582247 -0.0609952 0.0113614 0.054779 -0.0565321 
0.0299301 0.0552705 -0.0533179 0.0853605 0.0626412 -0.0564998 0.0658769 0.0701949 -0.053224 
0.116199 0.0658592 -0.0556881 0.130246 0.0630897 -0.0538199 0.0575091 0.0599912 -0.0471485 
0.0110889 0.0617766 -0.0455816 0.0384027 0.0546761 -0.0473623 0.056017 0.0732058 -0.0486405 
0.0555879 0.0904651 -0.0488384 0.0471539 0.0626622 -0.0369026 0.0841556 0.0629807 -0.0394503 
0.128485 0.0551336 -0.0412968 0.0682018 0.0570006 -0.0405517 0.128331 0.0713097 -0.0376134 
0.0161064 0.0862823 -0.0434019 0.0374539 0.0829193 -0.0325544 0.115886 0.0837163 -0.0305952 
0.132042 0.0654406 -0.0250525 0.0190596 0.0820287 -0.0269865 0.0640475 0.0571976 -0.0223653 
0.14383 0.0554429 -0.017624 0.129269 0.0565328 -0.0171444 0.14384 0.0655489 -0.0168392 
0.0557253 0.073871 -0.0139811 0.0143217 0.0595983 -0.000856332 0.0998871 0.0581796 -0.00861104 
0.0350177 0.0680255 -0.00293207 0.0947912 0.0694485 -0.00420046 0.143845 0.0578009 -0.00348133 
0.0780765 0.0662224 -0.000528566 0.0501024 0.0550897 0.0037983 0.0834536 0.0566791 0.000482052 
0.114694 0.0926504 0.143289 0.105736 0.0697802 0.00318469 0.05083 0.0740375 0.00147314 
0.0532396 0.0831764 0.00499789 0.0678193 0.0550689 0.00704513 0.078827 0.0569976 0.0121083 
0.0249722 0.0652692 0.0118768 0.0689211 0.0656866 0.0100491 0.100277 0.0647522 0.0120314 
0.056378 0.0654139 0.0107309 0.022163 0.0840684 0.00906754 0.099917 0.0835264 0.00694947 
0.0632275 0.0568615 0.0189541 0.0759722 0.057767 0.0223242 0.105108 0.0555715 0.0156583 
0.142789 0.0602563 0.0171519 0.118084 0.0639033 0.0153334 0.0946084 0.0788596 0.0219014 
0.0910629 0.0561877 0.0287873 0.113722 0.0549198 0.0281545 0.129708 0.0549679 0.0292919 
0.102808 0.064184 0.0245836 0.0792836 0.0661672 0.0279578 0.02539 0.0796705 0.0238991 
0.0754894 0.0585707 0.0370752 0.104494 0.0619434 0.0366579 0.132836 0.0633528 0.0344036 
0.111085 0.0769065 0.0357903 0.0920619 0.0897327 0.0365721 0.115735 0.0570904 0.0376614 
0.126106 0.0553274 0.0397988 0.140391 0.0567417 0.0380269 0.020013 0.0554577 0.0393013 
0.105082 0.0704744 0.0439857 0.0197476 0.0659615 0.0396801 0.0315408 0.0744413 0.0388373 
0.082417 0.0714251 0.0398995 0.114205 0.0668625 0.0390089 0.0929497 0.077067 0.0373676 
0.132414 0.0709013 0.0427772 0.0365804 0.0567304 0.0440884 0.0252768 0.0624715 0.0472377 
0.0910195 0.054944 0.050574 0.113204 0.0579902 0.0552905 0.00129385 0.0654782 0.0531176 
0.134055 0.0664981 0.0584879 0.0194338 0.067162 0.0590154 0.0927544 0.0760931 0.0593844 
0.0852251 0.086132 0.0569815 0.000582045 0.0608084 0.0639737 0.0418878 0.06573 0.0682383 
0.0430872 0.0779634 0.0621054 0.0997772 0.0850599 0.0673409 0.0132677 0.0565689 0.0680698 
0.135121 0.077351 0.071355 0.108319 0.0914884 0.0738119 0.0103366 0.0554163 0.0798281 
0.0762146 0.0589236 0.0803865 0.00634134 0.063987 0.0746446 0.0246151 0.0692934 0.0833614 
0.0556428 0.0657208 0.072469 0.0861646 0.0650038 0.0896196 0.1206 0.0697669 0.0865743 
0.0328625 0.0771249 0.0894753 0.0195007 0.0675918 0.0930041 0.0406741 0.0916478 0.0909808 
0.0561334 0.0796833 0.092473 0.123469 0.0823037 0.0957058 0.0163437 0.0556102 0.105097 
0.053157 0.0577052 0.0974449 0.0699278 0.0650903 0.104141 0.0200635 0.0758601 0.105436 
0.0306125 0.0563464 0.10609 0.130783 0.0664979 0.106878 0.143108 0.062225 0.104611 
0.12116 0.0770104 0.105677 0.0643773 0.0577058 0.115404 0.0498698 0.0670563 0.115203 
0.0767552 0.077441 0.117868 0.0201975 0.0697684 0.115644 0.0434805 0.0884673 0.116812 
0.138268 0.060843 0.122692 0.0472377 0.0619726 0.125358 0.0791122 0.0621748 0.125608 
0.0142517 0.0822088 0.12272 0.0963608 0.0781147 0.134052 0.127649 0.084291 0.12932 
0.0431484 0.0589242 0.136649 0.143082 0.0567956 0.137709 0.0806615 0.0607804 0.139836 
0.0635052 0.0756996 0.140785 0.00464995 0.0978205 0.13981 0.1283 0.0645332 0.144337 
0.014301 0.0878017 0.144554 
VERTICES 401 400
OFFSETS vtktypeint64
0 1 2 3 4 5 6 7 8 
9 10 11 12 13 14 15 16 17 
18 19 20 21 22 23 24 25 26 
27 28 29 30 31 32 33 34 35 
36 37 38 39 40 41 42 43 44 
45 46 47 48 49 50 51 52 53 
54 55 56 57 58 59 60 61 62 
63 64 65 66 67 68 69 70 71 
72 73 74 75 76 77 78 79 80 
81 82 83 84 85 86 87 88 89 
90 91 92 93 94 95 96 97 98 
99 100 101 102 103 104 105 106 107 
108 109 110 111 112 113 114 115 116 
117 118 119 120 121 122 123 124 125 
126 127 128 129 130 131 132 133 134 
135 136 137 138 139 140 141 142 143 
144 145 146 147 148 149 150 151 152 
153 154 155 156 157 158 159 160 161 
162 163 164 165 166 167 168 169 170 
171 172 173 174 175 176 177 178 179 
180 181 182 183 184 185 186 187 188 
189 190 191 192 193 194 195 196 197 
198 199 200 201 202 203 204 205 206 
207 208 209 210 211 212 213 214 215 
216 217 218 219 220 221 222 223 224 
225 226 227 228 229 230 231 232 233 
234 235 236 237 238 239 240 241 242 
243 244 245 246 247 248 249 250 251 
252 253 254 255 256 257 258 259 260 
261 262 263 264 265 266 267 268 269 
270 271 272 273 274 275 276 277 278 
279 280 281 282 283 284 285 286 287 
288 289 290 291 292 293 294 295 296 
297 298 299 300 301 302 303 304 305 
306 307 308 309 310 311 312 313 314 
315 316 317 318 319 320 321 322 323 
324 325 326 327 328 329 330 331 332 
333 334 335 336 337 338 339 340 341 
342 343 344 345 346 347 348 349 350 
351 352 353 354 355 356 357 358 359 
360 361 362 363 364 365 366 367 368 
369 370 371 372 373 374 375 376 377 
378 379 380 381 382 383 384 385 386 
387 388 389 390 391 392 393 394 395 
396 397 398 399 400 
CONNECTIVITY vtktypeint64
0 1 2 3 4 5 6 7 8 
9 10 11 12 13 14 15 16 17 
18 19 20 21 22 23 24 25 26 
27 28 29 30 31 32 33 34 35 
36 37 38 39 40 41 42 43 44 
45 46 47 48 49 50 51 52 53 
54 55 56 57 58 59 60 61 62 
63 64 65 66 67 68 69 70 71 
72 73 74 75 76 77 78 79 80 
81 82 83 84 85 86 87 88 89 
90 91 92 93 94 95 96 97 98 
99 100 101 102 103 104 105 106 107 
108 109 110 111 112 113 114 115 116 
117 118 119 120 121 122 123 124 125 
126 127 128 129 130 131 132 133 134 
135 136 137 138 139 140 141 142 143 
144 145 146 147 148 149 150 151 152 
153 154 155 156 157 158 159 160 161 
162 163 164 165 166 167 168 169 170 
171 172 173 174 175 176 177 178 179 
180 181 182 183 184 185 186 187 188 
189 190 191 192 193 194 195 196 197 
198 199 200 201 202 203 204 205 206 
207 208 209 210 211 212 213 214 215 
216 217 218 219 220 221 222 223 224 
225 226 227 228 229 230 231 232 233 
234 235 236 237 238 239 240 241 242 
243 244 245 246 247 248 249 250 251 
252 253 254 255 256 257 258 259 260 
261 262 263 264 265 266 267 268 269 
270 271 272 273 274 275 276 277 278 
279 280 281 282 283 284 285 286 287 
288 289 290 291 292 293 294 295 296 
297 298 299 300 301 302 303 304 305 
306 307 308 309 310 311 312 313 314 
315 316 317 318 319 320 321 322 323 
324 325 326 327 328 329 330 331 332 
333 334 335 336 337 338 339 340 341 
342 343 344 345 346 347 348 349 350 
351 352 353 354 355 356 357 358 359 
360 361 362 363 364 365 366 367 368 
369 370 371 372 373 374 375 376 377 
378 379 380 381 382 383 384 385 386 
387 388 389 390 391 392 393 394 395 
396 397 398 399 
POINT_DATA 400
FIELD FieldData 8
id 1 400 int
2648 3801 2755 3744 3884 3937 3023 3959 3970 
3994 3781 3745 3726 3823 3785 3773 3987 3917 
2739 3907 3586 2901 3903 3931 3960 3024 3296 
3757 3894 3873 3844 3981 3685 3180 3830 3814 
3242 3852 3025 3403 3727 3802 3766 3297 3734 
3793 2823 3359 3686 3824 3858 3976 2961 3711 
3740 2756 3774 3716 3949 3026 3877 3243 3932 
3767 3404 3786 2824 3758 3853 3687 3908 3181 
2825 3878 3405 2962 3759 3809 3835 3360 3135 
3918 3895 3919 3787 3808 3938 3961 3133 3996 
3815 3885 3845 3939 3975 3134 3995 2902 3746 
3182 3909 3720 3263 3971 3519 3688 3631 3782 
2963 3896 3831 3775 3747 3846 3810 3920 3940 
3925 3962 3244 3950 3988 3825 3803 3768 3879 
3854 3788 3926 3816 3982 3836 3760 3406 3863 
3794 3587 3955 3461 3298 3783 3910 3721 3989 
3728 3847 3735 3941 2826 3136 3769 3027 3859 
3795 3951 3864 3761 3911 3299 2757 3754 3407 
3245 2964 3874 3765 3776 3904 3837 3898 3736 
3588 3183 3865 3880 3817 3886 3804 3748 2509 
2649 3963 3866 3855 3933 3997 3887 3956 3984 
3897 3921 3690 3983 3954 3722 3689 3848 3729 
3875 3632 3977 3818 3161 3849 3876 3942 3905 
3952 3838 3899 2927 3717 3927 3811 3741 3972 
3964 3934 3762 3789 3900 3867 3943 3978 3730 
3888 3860 3440 3749 3922 3965 3665 3208 2989 
3796 3944 3957 3770 2867 3839 3737 3856 2748 
3812 3691 3889 3985 3819 3755 3868 3784 3945 
3712 2481 2591 3162 3777 3826 3731 3881 3869 
3840 3666 3441 3805 3832 3386 3262 3999 2749 
3763 3385 3915 3891 3841 3813 3827 3850 3778 
2482 3929 3797 3518 3613 3842 2483 3928 2751 
2750 3713 3923 3946 3990 3806 3890 3914 3913 
3973 3882 3324 3738 3614 3912 3901 3714 3870 
3163 3851 3966 3991 3779 3764 2790 3723 3820 
3790 3084 3771 3750 3667 3692 3442 3828 3742 
3718 2690 3791 3732 3892 3986 3861 3833 3947 
3979 3998 2928 3751 3715 3924 3807 3953 3756 
3739 3930 3974 3958 3668 3719 3916 3902 3834 
3780 3906 3980 4000 3862 3798 3821 3520 3325 
3752 3209 3843 2868 3871 3743 2484 3829 3799 
3443 3857 2752 3993 3992 3792 3872 3822 3969 
2550 3772 3326 3968 3800 3883 3753 3967 3521 
3733 2753 3725 3694 3936 3724 3893 3444 3948 
3935 2754 3693 2990 
type 1 400 int
2 2 2 2 2 2 2 2 2 
2 2 2 2 2 2 2 2 2 
2 2 2 2 2 2 2 2 2 
2 2 2 2 2 2 2 2 2 
2 2 2 2 2 2 2 2 2 
2 2 2 2 2 2 2 2 2 
2 2 2 2 2 2 2 2 2 
2 2 2 2 2 2 2 2 2 
2 2 2 2 2 2 2 2 2 
2 2 2 2 2 2 2 2 2 
2 2 2 2 2 2 2 2 2 
2 2 2 2 2 2 2 2 2 
2 2 2 2 2 2 2 2 2 
2 2 2 2 2 2 2 2 2 
2 2 2 2 2 2 2 2 2 
2 2 2 2 2 2 2 2 2 
2 2 2 2 2 2 2 2 2 
2 2 2 2 2 2 2 2 2 
2 2 2 2 2 2 2 2 2 
2 2 2 2 2 2 2 2 2 
2 2 2 2 2 2 2 2 2 
2 2 2 2 2 2 2 2 2 
2 2 2 2 2 2 2 2 2 
2 2 2 2 2 2 2 2 2 
2 2 2 2 2 2 2 2 2 
2 2 2 2 2 2 2 2 2 
2 2 2 2 2 2 2 2 2 
2 2 2 2 2 2 2 2 2 
2 2 2 2 2 2 2 2 2 
2 2 2 2 2 2 2 2 2 
2 2 2 2 2 2 2 2 2 
2 2 2 2 2 2 2 2 2 
2 2 2 2 2 2 2 2 2 
2 2 2 2 2 2 2 2 2 
2 2 2 2 2 2 2 2 2 
2 2 2 2 2 2 2 2 2 
2 2 2 2 2 2 2 2 2 
2 2 2 2 2 2 2 2 2 
2 2 2 2 2 2 2 2 2 
2 2 2 2 2 2 2 2 2 
2 2 2 2 2 2 2 2 2 
2 2 2 2 2 2 2 2 2 
2 2 2 2 2 2 2 2 2 
2 2 2 2 2 2 2 2 2 
2 2 2 2 
i 3 400 int
0 0 0 0 0 0 0 0 0 
0 0 0 0 0 0 0 0 0 
0 0 0 0 0 0 0 0 0 
0 0 0 0 0 0 0 0 0 
0 0 0 0 0 0 0 0 0 
0 0 0 0 0 0 0 0 0 
0 0 0 0 0 0 0 0 0 
0 0 0 0 0 0 0 0 0 
0 0 0 0 0 0 0 0 0 
0 0 0 0 0 0 0 0 0 
0 0 0 0 0 0 0 0 0 
0 0 0 0 0 0 0 0 0 
0 0 0 0 0 0 0 0 0 
0 0 0 0 0 0 0 0 0 
0 0 0 0 0 0 0 0 0 
0 0 0 0 0 0 0 0 0 
0 0 0 0 0 0 0 0 0 
0 0 0 0 0 0 0 0 0 
0 0 0 0 0 0 0 0 0 
0 0 0 0 0 0 0 0 0 
0 0 0 0 0 0 0 0 0 
0 0 0 0 0 0 0 0 0 
0 0 0 0 0 0 0 0 0 
0 0 0 0 0 0 0 0 0 
0 0 0 0 0 0 0 0 0 
0 0 0 0 0 0 0 0 0 
0 0 0 0 0 0 0 0 0 
0 0 0 0 0 0 0 0 0 
0 0 0 0 0 0 0 0 0 
0 0 0 0 0 0 0 0 0 
0 0 0 0 0 0 0 0 0 
0 0 0 0 0 0 0 0 0 
0 0 0 0 0 0 0 0 0 
0 0 0 0 0 0 0 0 0 
0 0 0 0 0 0 0 0 0 
0 0 0 0 0 0 0 0 0 
0 0 0 0 0 0 0 0 0 
0 0 0 0 0 0 0 0 0 
0 0 0 0 0 0 0 0 0 
0 0 0 0 0 0 0 0 0 
0 0 0 0 0 0 0 0 0 
0 0 0 0 0 0 0 0 0 
0 0 0 0 0 0 0 0 0 
0 0 0 0 0 0 0 0 0 
0 0 0 0 0 0 0 0 0 
0 0 0 0 0 0 0 0 0 
0 0 0 0 0 0 0 0 0 
0 0 0 0 0 0 0 0 0 
0 0 0 0 0 0 0 0 0 
0 0 0 0 0 0 0 0 0 
0 0 0 0 0 0 0 0 0 
0 0 0 0 0 0 0 0 0 
0 0 0 0 0 0 0 0 0 
0 0 0 0 0 0 0 0 0 
0 0 0 0 0 0 0 0 0 
0 0 0 0 0 0 0 0 0 
0 0 0 0 0 0 0 0 0 
0 0 0 0 0 0 0 0 0 
0 0 0 0 0 0 0 0 0 
0 0 0 0 0 0 0 0 0 
0 0 0 0 0 0 0 0 0 
0 0 0 0 0 0 0 0 0 
0 0 0 0 0 0 0 0 0 
0 0 0 0 0 0 0 0 0 
0 0 0 0 0 0 0 0 0 
0 0 0 0 0 0 0 0 0 
0 0 0 0 0 0 0 0 0 
0 0 0 0 0 0 0 0 0 
0 0 0 0 0 0 0 0 0 
0 0 0 0 0 0 0 0 0 
0 0 0 0 0 0 0 0 0 
0 0 0 0 0 0 0 0 0 
0 0 0 0 0 0 0 0 0 
0 0 0 0 0 0 0 0 0 
0 0 0 0 0 0 0 0 0 
0 0 0 0 0 0 0 0 0 
0 0 0 0 0 0 0 0 0 
0 0 0 0 0 0 0 0 0 
0 0 0 0 0 0 0 0 0 
0 0 0 0 0 0 0 0 0 
0 0 0 0 0 0 0 0 0 
0 0 0 0 0 0 0 0 0 
0 0 0 0 0 0 0 0 0 
0 0 0 0 0 0 0 0 0 
0 0 0 0 0 0 0 0 0 
0 0 0 0 0 0 0 0 0 
0 0 0 0 0 0 0 0 0 
0 0 0 0 0 0 0 0 0 
0 0 0 0 0 0 0 0 0 
0 0 0 0 0 0 0 0 0 
0 0 0 0 0 0 0 0 0 
0 0 0 0 0 0 0 0 0 
0 0 0 0 0 0 0 0 0 
0 0 0 0 0 0 0 0 0 
0 0 0 0 0 0 0 0 0 
0 0 0 0 0 0 0 0 0 
0 0 0 0 0 0 0 0 0 
0 0 0 0 0 0 0 0 0 
0 0 0 0 0 0 0 0 0 
0 0 0 0 0 0 0 0 0 
0 0 0 0 0 0 0 0 0 
0 0 0 0 0 0 0 0 0 
0 0 0 0 0 0 0 0 0 
0 0 0 0 0 0 0 0 0 
0 0 0 0 0 0 0 0 0 
0 0 0 0 0 0 0 0 0 
0 0 0 0 0 0 0 0 0 
0 0 0 0 0 0 0 0 0 
0 0 0 0 0 0 0 0 0 
0 0 0 0 0 0 0 0 0 
0 0 0 0 0 0 0 0 0 
0 0 0 0 0 0 0 0 0 
0 0 0 0 0 0 0 0 0 
0 0 0 0 0 0 0 0 0 
0 0 0 0 0 0 0 0 0 
0 0 0 0 0 0 0 0 0 
0 0 0 0 0 0 0 0 0 
0 0 0 0 0 0 0 0 0 
0 0 0 0 0 0 0 0 0 
0 0 0 0 0 0 0 0 0 
0 0 0 0 0 0 0 0 0 
0 0 0 0 0 0 0 0 0 
0 0 0 0 0 0 0 0 0 
0 0 0 0 0 0 0 0 0 
0 0 0 0 0 0 0 0 0 
0 0 0 0 0 0 0 0 0 
0 0 0 0 0 0 0 0 0 
0 0 0 0 0 0 0 0 0 
0 0 0 0 0 0 0 0 0 
0 0 0 0 0 0 0 0 0 
0 0 0 0 0 0 0 0 0 
0 0 0 0 0 0 0 0 0 
0 0 0 0 0 0 0 0 0 
0 0 0 
v 3 400 double
-0.089261030472 -0.32717670127 -0.029807954918 -0.013330666356 0.074347938562 0.034713071404 -0.0021441907264 0.059400121159 0.046438722938 
-0.081607402586 -0.087286024405 0.04288020707 -0.01085233179 -0.82897663213 0.039972707858 -0.0054708482851 -1.0271889 -0.0054188392603 
-0.060186510457 -0.096877005556 0.090358642599 -0.0031796623937 -0.96848353033 0.010498871909 0.28784689457 -0.65243370382 -0.001461396721 
0.058491060856 -0.5089740009 0.030202727789 0.075373447169 -0.0060452228312 -0.070086685119 -0.066919938381 0.03308312074 -0.11199840965 
0.088754276994 0.22662720955 0.01755179333 0.23079818756 -0.03165334086 -0.1030368356 -0.27071735458 -0.19683753819 -0.023520714447 
0.26990347913 -0.12513500577 -0.29153470172 -0.0083415219662 -0.98471296677 0.12867894074 -0.013734895208 -0.48692684303 0.10265739592 
0.025777668557 0.12637357078 0.015586776176 0 0.410001241 0 -0.34003113381 -0.060688233229 0.0035415894014 
-0.10841622387 0.15857902066 -0.11203659143 0.095839706119 -0.53302249408 0.14962340729 -0.0098478174318 -0.60355487926 -0.03001525924 
-0.27164938858 -0.48596043297 0.28349605921 0.047023660214 -0.22867315001 0.053449969818 0.029090236471 -0.23488054518 0.0051794735202 
0.0340779321 0.0002319135752 0.0029551833854 -0.0009813913274 -0.33864815927 -0.44173462769 0.11885496493 -0.63082083699 0.21183462095 
0.31208578683 -0.4367738468 0.27824734041 0.00017700445032 -1.0107416072 -0.012519541024 0.12933529232 0.042588217061 0.051919416551 
-0.005644904192 0.11634111591 0.004857108426 -0.02928727251 -0.44843732248 0.18855593476 0.10565630516 -0.04783649046 0.27747699068 
0.073421974865 0.032193320907 0.26764079307 0.059066017758 -0.21799998636 0.10430757491 0.064589212998 -0.056803386309 -0.095420423741 
-0.0096575554909 0.27005267014 0.0080604148417 -0.014901053929 -0.088385435829 0.28332991228 -0.040956546694 0.26237529859 -0.077021290032 
0.099974090402 0.01044452285 0.084876551395 0.028135713549 -0.096028905037 0.39390411585 0 0.39896583638 0 
0.087677839082 0.25213227295 0.15366330954 0.048239276178 0.099225294711 0.24497616456 -0.097613623005 0.14261836488 -0.069878233524 
0.14905294577 0.19639092514 0.014893614453 0 0.4099646538 0 0.21664196646 -0.54186668609 -0.31795590965 
-0.00029414138551 -1.0100510944 0.0058730871698 -0.057480961401 -0.2194754199 0.034958069735 -0.23522534549 0.015511879386 -0.20546539832 
-0.013439671783 0.51232874696 -0.080587636658 0 0.39895779965 -0.0048950405667 0.1287683514 0.19121853907 0.11076579337 
-0.21182349314 0.046633813357 -0.020952048906 0 -1 0 -1.4485258125e-05 0.39873630553 -3.634419112e-05 
-0.086779301048 -0.2785135113 0.19611833365 0.0073616794846 0.22860097262 0.0056379145434 0.27123173275 -0.4815342286 0.23692752894 
-0.004507024569 0.40045571211 -0.019038581245 0.013750131286 0.41310435568 -0.010249234026 0.16516498594 -0.03766484776 0.11888971262 
-0.21192915926 -0.071779856971 0.31197155673 0.40068072595 -0.21000497752 0.007023702728 0.16177005642 -0.07644656374 -0.00059768219633 
0 0.39374558319 -0.0047274651976 -0.21558529215 -0.019513045433 -0.17941226195 -0.0006249839803 0.39654364795 -0.0035443033661 
0 0.41049660782 0 0 0.39904491296 0 0.32876983248 -0.031845621495 -0.32283421205 
0.25500455134 -0.1417376939 -0.16062557434 0 0.40508628054 1.1391752074e-05 0.10261538139 0.024450565892 0.019208162786 
-0.044237452005 0.0062643316779 0.3233502501 0.028636836633 -0.062673917763 -0.0038113639799 0.038236512012 0.25899697375 0.011410316784 
0.10829450245 -0.84218981088 -0.097336266398 0 0.38773520475 0 0.06778309893 -0.23429956211 0.059737372503 
-0.062514802002 0.021990781254 -0.11975482435 -0.13951011532 0.06517407504 -0.20749751531 0.010547049795 -0.95394052494 0.093829393121 
0.23335665952 -0.77409635784 -0.15643761429 -0.0030995011966 0.4005287818 -0.0015598553611 0 -0.9721303155 -0.055656208548 
-0.14770044765 0.17433285824 -0.010388830832 0.014824334802 0.19099421226 0.014123790037 -0.018713004647 0.38875185117 7.8913229596e-15 
-0.13153784872 -0.44822822051 -0.16710831544 0.0003178502612 -1.0164391779 0.0014461503232 0.0017389604782 0.39882328398 -0.0017389604782 
0 -0.9721303155 0.055656208548 -0.11339564345 0.024977416171 0.026157105187 0.0044511679252 0.036660888111 -0.10485127224 
0.093781202475 -0.12432776336 -0.096122593785 0.11366431036 0.066792172742 0.026328983168 0.013931066891 -0.50150451109 -0.049158329061 
-0.0053444608278 0.09390465394 -0.0053444608277 -0.01317286668 -1.0069206427 -0.011830734102 -0.026301618679 0.19420349068 -0.026301618679 
0.052318226246 0.24540062781 0.016042237414 -0.036369366484 0.017974500659 -0.068187313974 -0.0046612500061 0.15225695167 -0.13291573575 
0.050307472457 -0.061266872548 -0.00070941091907 0.22170986575 -0.6768979483 -0.09137128863 0.051891748284 -0.082312162367 -0.092980730788 
-0.18717318799 -0.73015600495 0.056860213738 0.21397611762 -0.18457306597 0.08072903421 0.0019643438951 0.049795786102 0.19681575374 
0.21650160605 -0.16724870387 0.03514236238 -0.19730406906 -0.75627470857 0.086018577836 0.16056353749 0.067107767697 -0.25285359102 
-0.045200578316 -0.32271749246 -0.075866697798 0.10480657339 -0.70608752046 0.12937807699 -0.011140416409 0.097767829241 -0.12921837017 
-0.040562073389 -0.35263073234 0.0035808446457 -0.0091969617183 -0.79483275756 0.027868390769 -0.27670557293 0.1184822763 -0.11972025329 
-0.25955000585 -0.21101237872 0.17621982234 0.04529813777 -0.018487324901 0.13121643403 -0.099885979843 -0.36207405443 -0.31548283706 
-0.041144990168 -0.29450778737 -0.032836461159 0.035195391938 0.24837499408 -0.0076218529617 0.1879016854 -0.16431335983 0.29282933224 
0.14839527413 0.58811835358 0.043079860813 0.020080953896 -0.64406609233 -0.33588500902 -0.0031692489649 0.11997671102 0.010630418751 
-0.055878085168 0.018552676409 0.077319089015 0.065488564927 -0.35442664726 -0.012031646837 -0.095267900634 -0.051349547136 0.20293536998 
-0.0021049833578 0.38899466784 -0.000126565171 -0.074711751139 -0.0080621039028 0.03428911449 0.013861990916 -0.74749776066 -0.030933644344 
-0.021848057887 0.035427487958 -0.021584731543 0.049596459578 0.02619226542 0.061006345325 -0.0020887119363 0.38986351732 -0.0070491576428 
-0.19919498974 0.03461183434 0.2134277811 -0.19253529704 -0.21255426959 0.11624059123 -0.0022357930233 -0.9708917541 -0.002153005058 
0.09325535229 -0.60639467335 0.0048504953267 0.30914526625 -0.076061414229 0.017928294381 0 0.41007381017 0 
0.031131950044 0.032706997154 0.10031977015 -0.0016610994383 0.29654940525 0.0087496036546 -0.00044574958215 0.029243049089 0.10201140501 
0.0020429030869 0.39521847008 -0.0010600737839 -0.0067172086632 0.56567410001 0.037516284279 0.012190777852 0.32929773123 0.012633784709 
0 0.41052549956 0 0 -0.9721303155 8.088568831e-19 -0.30913231034 -0.14469180369 -0.052300456479 
-0.099959489572 -0.1233748061 -0.20223186855 0.28898616671 -0.19190778599 -0.016005528125 0 0.39882697079 0 
0 0.39925497113 0 0.0054133008088 0.19133681935 0.013236184703 0.0023122065005 0.39628274053 0.0023597342796 
0.00056348824668 0.40152978625 0.00027402949384 0 0.39875819248 -0.0097057056303 0.017520411208 0.26585849524 0.23466470492 
-0.076416026534 0.17725342488 -0.024615689046 -0.20190154007 0.19481537035 0.026359778761 0.19486558551 -0.80241639768 -0.016170939304 
0.067490180065 0.26525617797 0.16187870525 0.0002814165965 0.39586236908 -0.0042450652735 0 0.39872827304 0 
0 0.38755395842 -0.0050852537353 -8.0938774001e-06 0.39894161244 0 -0.00036883905222 0.40129851273 -0.0077537456699 
-0.0028093883689 0.38986854671 0.0010682915147 0 0.38761842277 0 0.0012503121485 0.38702661056 -0.005926866043 
0 0.41016565709 9.1963837408e-06 0.0002436659938 0.41148920957 0.0063921664547 -0.0033082998542 0.13377592098 -0.0033247496929 
-0.0046666478446 0.28784143851 -0.0046798590522 0 -1.0139348422 0.013934842249 0.0024336544151 0.40286253151 0.0042270621109 
-0.002634341908 0.41110012695 0.0010203462189 0 -1 -8.088568831e-19 0.0014610539288 -0.96504033019 -0.0073217767032 
0.00051441565056 0.39864167423 0.0017178022421 0.00043407114166 -1.0152295393 -0.01351538144 0.0017521974428 -1.0007942276 0.004261372227 
0.0095138473008 0.38260256694 -0.00019290094459 -0.063061447179 -0.92397701301 0.0012784531116 0.003430585782 0.26858144658 0.036345321829 
0.36977578319 -0.64772503422 -0.25858240166 0.099347670376 -0.83234251585 -0.005790205922 -0.23465860515 0.31091122182 0.049620763329 
-0.024300398877 0.081944597612 -0.00071318226559 -0.0049731229352 0.30611867265 -0.00060262801571 -0.30057167303 -0.0057001018753 -0.016076409613 
0.076243950606 -0.45975376378 -0.018207151997 -0.099007385536 0.082080622725 -0.049446953515 0.0050909747433 -0.80797522158 -0.033712280558 
0.094126888047 -0.2671999928 0.026676990694 -0.050345147413 -0.022548269484 -0.021383387956 -0.15105536348 -0.16664279341 -0.068351697668 
0.02357125686 -0.78982293233 0.017400398187 -0.007583588806 -0.91753982802 0.033764453348 0.050161836372 -0.78610509637 0.0017946338943 