# vtk DataFile Version 5.1
Generated by LIGGGHTS
ASCII
DATASET POLYDATA
POINTS 1023 float
-0.137484 0.056146 -0.144233 -0.14087 0.069559 -0.143683 -0.0128125 0.0714552 -0.144993 
-0.101186 0.107265 -0.142501 -0.129088 0.120708 -0.142741 -0.049288 0.182052 -0.142432 
-0.143921 0.0599971 -0.135414 -0.118496 0.0578107 -0.138619 -0.0759363 0.0591203 -0.137151 
-0.0713958 0.0811902 -0.138471 -0.0728809 0.11511 -0.142318 -0.133265 0.0686384 -0.133165 
-0.0429062 0.0711544 -0.128799 -0.0807381 0.0859367 -0.13232 -0.0085132 0.0917978 -0.131689 
-0.0231458 0.111663 -0.132561 -0.00353538 0.151513 -0.130997 -0.0736686 0.173231 -0.131205 
-0.116575 0.0593873 -0.121482 -0.135058 0.0740901 -0.120816 -0.14 0.0575793 -0.115478 
-0.0868539 0.0590496 -0.117082 -0.131183 0.0644475 -0.117982 -0.0358059 0.0825023 -0.118486 
-0.141287 0.0857389 -0.118123 -0.0827983 0.0986233 -0.117963 -0.118899 0.121396 -0.119328 
-0.125714 0.0647701 -0.10647 -0.0339141 0.073785 -0.110437 -0.11972 0.0868244 -0.109384 
-0.0172755 0.0957124 -0.108831 -0.0820158 0.114266 -0.110828 -0.02357 0.176719 -0.10496 
-0.086341 0.200034 -0.111092 -0.086341 0.200031 -0.106943 -0.0821927 0.200035 -0.106943 
-0.0821927 0.200038 -0.111092 -0.0233708 0.0594626 -0.103991 -0.0610964 0.0751492 -0.101044 
-0.112705 0.141802 -0.104072 -0.103922 0.0685079 -0.0943304 -0.0562863 0.108776 -0.0919883 
-0.0672105 0.129269 -0.0913105 -0.050229 0.0598309 -0.085331 -0.00612311 0.0747299 -0.0860431 
-0.0745389 0.103531 -0.0840751 -0.0438692 0.110353 -0.0890048 -0.0299437 0.0663306 -0.0822906 
-0.0426716 0.0919467 -0.0753668 -0.114537 0.0598937 -0.069557 -0.125126 0.0761741 -0.0732361 
-0.0457572 0.0722913 -0.068436 -0.032954 0.0735836 -0.0748788 -0.04749 0.0587045 -0.0637781 
-0.114866 0.160793 -0.0601998 -0.11749 0.0689947 -0.0582059 -0.115176 0.0807167 -0.0571216 
-0.0456799 0.122334 -0.0545776 -0.0298384 0.186188 -0.057522 -0.0729815 0.0573133 -0.0475722 
-0.0341398 0.056086 -0.0505866 -0.0586254 0.0759684 -0.0447158 -0.00844556 0.0721505 -0.0456693 
-0.141803 0.0998765 -0.0530143 -0.0210861 0.109706 -0.0490415 -0.032335 0.0896373 -0.04456 
-0.0932282 0.101273 -0.0400542 -0.0246544 0.121027 -0.0449959 -0.131259 0.159415 -0.0458725 
-0.0238743 0.0982384 -0.0360948 -0.0121915 0.0947511 -0.030944 -0.111442 0.0572209 -0.0244024 
-0.091819 0.0855619 -0.024307 -0.0178963 0.0851497 -0.0266982 -0.139785 0.106339 -0.026096 
-0.0018942 0.14177 -0.0250248 -0.0555141 0.0689799 -0.0154269 -0.0685701 0.0716231 -0.0167075 
-0.0262518 0.0807231 -0.0224432 -0.0207639 0.110691 -0.0175857 -0.050268 0.163026 -0.0180726 
-0.114913 0.0585597 -0.0151372 -0.0313342 0.0603707 -0.0114361 -0.13231 0.0684727 -0.012352 
-0.124893 0.0616425 -0.0109698 -0.00727116 0.0828208 -0.0076839 -0.133947 0.124475 -0.0134722 
-0.137681 0.0581145 -0.00133694 -0.0840799 0.0593321 -0.00282939 -0.0430906 0.0607446 -0.00524156 
-0.114422 0.0622333 -0.00549097 -5.08688e-05 0.0635471 -0.140779 -0.109139 0.0748025 0.00018248 
-0.118781 0.125812 0.00647997 -0.106014 0.0607038 0.0125905 -0.0362843 0.0562919 0.014109 
-0.144025 0.0661376 0.0148924 -0.1335 0.0650537 0.0143696 -0.120328 0.0694156 0.0087016 
-0.0234298 0.0732457 0.0169193 -0.13085 0.078538 0.0179064 -0.109268 0.081873 0.0216451 
-0.0970996 0.125686 0.0222925 -0.120954 0.0554656 0.0238752 -0.0228716 0.0604455 0.0242505 
-0.119659 0.0756009 0.0270102 -0.033638 0.0761047 0.0294322 -0.0662253 0.0784982 0.0273567 
-0.0725898 0.112162 0.0249339 -0.0880112 0.0764134 0.0349512 -0.0205585 0.074686 0.0334097 
-0.128563 0.121474 0.0339949 -0.0414217 0.0589486 0.0416652 -0.126736 0.0936178 0.0394052 
-0.135047 0.153254 0.0434719 -0.107488 0.0684648 0.0463965 -0.0763638 0.0662505 0.0491342 
-0.0608209 0.0674883 0.0452247 -0.137989 0.0733403 0.0462029 -0.13429 0.0620668 0.0599662 
-0.0852217 0.0575661 0.0670901 -0.034392 0.0614529 0.0644832 -0.138732 0.0709143 0.0658305 
-0.0397808 0.0841423 0.0630492 -0.0113536 0.0803377 0.0643157 -0.109249 0.197661 0.0606979 
-0.12723 0.0616219 0.0743183 -0.0741404 0.137967 0.0694055 -0.0370924 0.13393 0.069375 
-0.00540865 0.0560194 0.0768346 -0.0256878 0.0625602 0.0787819 -0.121636 0.10848 0.0795793 
-0.0772244 0.189038 0.0764606 -0.129196 0.0650351 0.0835834 -0.115703 0.0920629 0.0847745 
-0.00804723 0.0978683 0.0830474 -0.125737 0.109467 0.0903063 -0.0484716 0.0683306 0.0917063 
-0.0301277 0.126848 0.0999991 -0.0547884 0.145678 0.103379 -0.0226344 0.0758344 0.111066 
-0.0201919 0.0574834 0.117822 -0.0643365 0.143127 0.11678 -0.0875602 0.135861 0.13036 
-0.0449667 0.170708 0.134021 -0.0794616 0.195281 0.12963 -0.117694 0.198541 0.130405 
-0.118589 0.0702769 0.141253 -0.0984658 0.0937197 0.140079 -0.0924584 0.107386 0.141905 
-0.107992 0.0581935 0.142752 -0.0803212 0.180384 0.144095 -0.0471701 0.184329 0.143549 
-0.000537033 0.0734279 0.09285 -0.0734604 0.116846 0.000669998 -0.131007 0.219044 -0.135238 
-0.131007 0.219044 -0.127897 -0.123665 0.219044 -0.127897 -0.123665 0.219044 -0.135238 
-0.131007 0.237224 -0.135238 -0.131007 0.237224 -0.127897 -0.123665 0.237224 -0.127897 
-0.123665 0.237224 -0.135238 -0.116885 0.286664 -0.119168 -0.100963 0.28668 -0.119168 
-0.116909 0.34023 -0.119303 -0.100987 0.340246 -0.119303 -0.0863459 0.204982 -0.111087 
-0.0863459 0.204979 -0.106939 -0.0821976 0.204982 -0.106939 -0.0821976 0.204986 -0.111087 
-0.04266 0.231806 -0.108058 -0.0327249 0.231806 -0.108058 -0.04266 0.260684 -0.108058 
-0.0327249 0.260684 -0.108058 -0.04266 0.231806 -0.098123 -0.0327249 0.231806 -0.098123 
-0.04266 0.260684 -0.098123 -0.0327249 0.260684 -0.098123 -0.116885 0.286757 -0.103246 
-0.100963 0.286773 -0.103246 -0.116909 0.340323 -0.103382 -0.100987 0.340339 -0.103382 
-0.0907125 0.227784 -0.0933766 -0.081775 0.227784 -0.0933766 -0.0573156 0.244566 -0.0907592 
-0.0447863 0.244566 -0.0907592 -0.0907125 0.252548 -0.0933766 -0.081775 0.252548 -0.0933766 
-0.0573156 0.284144 -0.0907667 -0.0447863 0.284144 -0.0907667 -0.0718796 0.210122 -0.0840933 
-0.071878 0.210122 -0.089838 -0.066135 0.210122 -0.0840917 -0.0661333 0.210123 -0.0898363 
-0.0718797 0.221718 -0.084093 -0.0718781 0.221719 -0.0898376 -0.066135 0.221719 -0.0840913 
-0.0661334 0.221719 -0.089836 -0.0907125 0.227784 -0.0844392 -0.081775 0.227784 -0.0844392 
-0.0907125 0.252548 -0.0844392 -0.081775 0.252548 -0.0844392 -0.0878546 0.210885 -0.0757285 
-0.0819103 0.210885 -0.0757285 -0.0878546 0.223304 -0.0757285 -0.0819103 0.223304 -0.0757285 
-0.0689164 0.228481 -0.0793086 -0.0595799 0.228497 -0.0793283 -0.121358 0.242051 -0.076951 
-0.109427 0.242055 -0.0770788 -0.0551791 0.245982 -0.0794417 -0.0447863 0.244574 -0.0782294 
-0.0689395 0.25489 -0.0794045 -0.0617395 0.253497 -0.078212 -0.121363 0.279159 -0.0769629 
-0.109432 0.279162 -0.0770908 -0.0573156 0.284148 -0.0782379 -0.0447863 0.284148 -0.0782379 
-0.0878546 0.210885 -0.0697843 -0.0819103 0.210885 -0.0697843 -0.0878546 0.223304 -0.0697843 
-0.0819103 0.223304 -0.0697843 -0.0688967 0.228547 -0.069972 -0.0595602 0.228563 -0.0699918 
-0.0239816 0.244476 -0.0706893 -0.0118514 0.244399 -0.0706258 -0.0689197 0.254956 -0.070068 
-0.0595832 0.254971 -0.0700878 -0.0238682 0.282406 -0.0707732 -0.011738 0.282329 -0.0707097 
-0.12123 0.242059 -0.0650204 -0.109299 0.242063 -0.0651483 -0.0127041 0.245216 -0.060029 
-0.121235 0.279167 -0.0650324 -0.109304 0.27917 -0.0651602 -0.0877514 0.232837 -0.0550346 
-0.0774172 0.232837 -0.0550346 -0.0173417 0.238715 -0.05788 -0.00659937 0.239477 -0.0593662 
-0.0240452 0.244534 -0.0585591 -0.0595266 0.249529 -0.0560783 -0.0463987 0.249529 -0.0560783 
-0.0877514 0.263364 -0.0550409 -0.0774172 0.263364 -0.0550409 -0.018135 0.274936 -0.0594353 
-0.00660352 0.274939 -0.0593883 -0.0239318 0.282464 -0.0586431 -0.0118016 0.282386 -0.0585795 
-0.0595266 0.291574 -0.0560783 -0.0463987 0.291574 -0.0560783 -0.0181779 0.239489 -0.0478818 
-0.00664634 0.239492 -0.0478348 -0.0181821 0.274951 -0.0479038 -0.00665048 0.274954 -0.0478568 
-0.0877514 0.232845 -0.0447 -0.0774172 0.232845 -0.0447 -0.0595266 0.249529 -0.0429504 
-0.0463987 0.249529 -0.0429504 -0.0877514 0.263365 -0.044707 -0.0774172 0.263365 -0.044707 
-0.0595266 0.291574 -0.0429504 -0.0463987 0.291574 -0.0429504 -0.107919 0.21701 -0.0362705 
-0.100778 0.21701 -0.0362705 -0.13245 0.231306 -0.035662 -0.122715 0.231306 -0.035662 
-0.107919 0.234367 -0.0362705 -0.100778 0.234367 -0.0362705 -0.13245 0.259359 -0.0356618 
-0.122715 0.259359 -0.0356618 -0.107919 0.21701 -0.029129 -0.100778 0.21701 -0.029129 
-0.051905 0.211578 -0.0228329 -0.0457612 0.211578 -0.0228329 -0.0457612 0.22482 -0.0228329 
-0.051905 0.22482 -0.0228329 -0.13245 0.231304 -0.0259264 -0.122715 0.231304 -0.0259264 
-0.107919 0.234367 -0.029129 -0.100778 0.234367 -0.029129 -0.13245 0.25936 -0.0259262 
-0.122715 0.25936 -0.0259262 -0.00288524 0.21079 -0.0217563 -0.00289478 0.210622 -0.0170096 
-0.00299333 0.203497 -0.0218782 -0.00299691 0.203339 -0.0171315 -0.0457612 0.211578 -0.0166892 
-0.051905 0.211578 -0.0166892 -0.0457612 0.22482 -0.0166892 -0.051905 0.22482 -0.0166892 
-0.0226924 0.242156 -0.0207428 -0.0116754 0.24202 -0.0175397 -0.0234336 0.279166 -0.0183058 
-0.0117098 0.279127 -0.0175565 -0.051989 0.216529 -0.00948458 -0.0448475 0.216576 -0.00947677 
-0.0520326 0.233903 -0.00947679 -0.0448911 0.233916 -0.0094846 -0.0320466 0.241976 -0.00909623 
-0.0173853 0.242996 -0.0104178 -0.0312727 0.27739 -0.00937789 -0.0166907 0.280492 -0.0127835 
-0.0251191 0.241067 -0.00463852 -0.0116506 0.242043 -0.00568212 -0.0266311 0.275966 -0.00197785 
-0.0118926 0.279139 -0.005626 -0.051989 0.216546 0.00717364 -0.0448475 0.216559 0.00716583 
-0.0520326 0.233886 0.00716584 -0.0448911 0.233933 0.00717365 -0.0312754 0.242017 0.00255547 
-0.0203239 0.241842 0.00525912 -0.0312727 0.277393 0.00255271 -0.0193922 0.277374 0.00269396 
-0.0914363 0.221342 0.0201946 -0.0832971 0.221347 0.0201483 -0.0914436 0.242813 0.020195 
-0.0833044 0.242818 0.0201487 -0.107234 0.222738 0.0291642 -0.0988951 0.22274 0.0291677 
-0.0913901 0.221342 0.0283338 -0.0832508 0.221347 0.0282876 -0.0913974 0.242813 0.0283342 
[...]
POINT_DATA 1023
FIELD FieldData 8
id 1 1023 int
3781 3801 3730 3994 3970 3884 3894 3745 2648 
3749 3744 2739 2901 3917 3952 3937 3726 3802 
2755 3023 3024 3931 3785 3296 3823 3981 3359 
3586 3852 3908 3773 3180 3959 4690 4691 4695 
4694 3844 3685 3987 3738 3808 3830 3960 3943 
3932 3903 3966 3242 3360 3716 3757 3877 3731 
3243 3727 3135 3873 3519 3918 3961 3814 2962 
3896 3809 3758 3939 3244 3951 2824 2749 3853 
2961 3995 3920 3774 3786 3938 3787 3879 3953 
3885 3919 3297 3182 2482 3815 3925 3746 3975 
3971 3927 3831 2823 3720 3962 3688 3982 2902 
3782 3825 3950 3988 3836 3847 3803 3940 3906 
3996 3775 3587 3909 3747 3955 3728 3631 3911 
3788 3854 3760 3768 3406 3864 3954 3461 3859 
3863 3761 3765 3871 2550 3910 3904 3721 3941 
3325 3776 3136 2509 3997 3754 3977 3963 3632 
3874 3897 3921 3729 3875 3956 3689 3837 3690 
3968 3686 4442 4443 4447 4446 4444 4445 4441 
4448 4018 4022 4020 4024 4692 4693 4689 4696 
4226 4230 4228 4232 4227 4231 4229 4225 4019 
4023 4021 4017 4330 4334 4042 4046 4332 4336 
4044 4048 4603 4602 4607 4606 4605 4604 4601 
4608 4331 4335 4333 4329 4594 4598 4596 4600 
4282 4286 4084 4088 4043 4047 4284 4288 4086 
4090 4045 4041 4595 4599 4597 4593 4283 4287 
4058 4062 4285 4281 4060 4064 4085 4089 4063 
4087 4091 4194 4198 4138 4142 4059 4026 4030 
4196 4200 4140 4144 4061 4057 4028 4032 4139 
4143 4141 4137 4195 4199 4027 4031 4197 4193 
4029 4025 4475 4479 4258 4262 4477 4481 4260 
4264 4476 4480 4578 4582 4584 4580 4259 4263 
4478 4482 4261 4257 4660 4661 4658 4659 4583 
4579 4577 4581 4092 4096 4094 4074 4483 4487 
4485 4474 4076 4093 4078 4095 4080 4075 4082 
4073 4484 4488 4486 4473 4077 4081 4079 4083 
4362 4366 4364 4368 4346 4350 4363 4367 4365 
4361 4348 4352 4680 4676 4678 4674 4347 4351 
4162 4166 4349 4345 4164 4168 4010 4012 4673 
4677 4679 4675 4314 4318 4163 4167 4316 4320 
4165 4161 4635 4634 4638 4639 4636 4637 4633 
4640 4354 4356 4011 4013 4498 4355 4315 4319 
4266 4270 4146 4150 4034 4357 4317 4313 4038 
4268 4272 4148 4152 4036 4040 4002 4006 4004 
4008 4499 4267 4271 4500 4501 4115 4119 4035 
4039 4269 4265 4117 4121 4068 4072 4037 4033 
4154 4158 4147 4151 4066 4070 4156 4160 4149 
4145 4003 4007 4005 4001 4234 4238 4210 4214 
4116 4155 4120 4159 4127 4123 4067 4071 4236 
4240 4212 4216 4157 4153 4118 4122 4125 4114 
4069 4065 4535 4534 4531 4530 4387 4391 4235 
4239 4529 4536 4533 4532 4211 4215 4124 4389 
4128 4393 4237 4233 4213 4209 4126 4113 4586 
4590 4450 4454 4588 4592 4388 4392 4418 4422 
4452 4456 4390 4394 4178 4182 4420 4424 4180 
4184 4587 4591 4451 4455 4589 4585 4419 4423 
4290 4294 4453 4449 4421 4417 4292 4296 4555 
4559 4557 4561 4399 4395 4338 4342 4291 4295 
4179 4183 4386 4397 4340 4344 4293 4289 4181 
4177 4506 4510 4556 4560 4558 4562 4400 4396 
4339 4343 4508 4512 4385 4398 4341 4337 4612 
4611 4616 4615 4507 4511 4613 4614 4617 4618 
4509 4505 4563 4567 4565 4554 4050 4052 4619 
4620 4624 4623 4622 4621 4609 4610 4564 4568 
4566 4553 4051 4053 3899 3849 3161 3811 3905 
3942 3818 3385 3934 3789 3440 3900 3876 3972 
3838 3762 3860 3784 3957 3964 3978 3945 3025 
3405 3741 3717 3755 2927 3985 3858 3867 2591 
2989 3922 2481 3778 3796 3666 3856 3711 3888 
2867 3764 3779 3819 3441 3915 3870 3737 3869 
3806 3805 3665 3766 3712 3386 2483 3812 3770 
3162 3208 3840 3881 3797 3691 2748 3723 3889 
3850 3262 3891 3324 3851 3614 2751 3973 3742 
3913 3263 3732 3777 3890 3771 2750 3793 3946 
3991 3714 3914 2690 3791 3442 3763 3999 3820 
3668 3901 3718 3923 2790 2484 3828 3613 3692 
2963 3799 3084 3916 3979 3974 3993 3998 3667 
3924 3810 2928 3790 3835 3947 3750 3739 3715 
3719 3892 3821 3846 3743 3969 3848 3883 3772 
3751 3298 3857 3861 3833 3443 3926 3958 3902 
3733 3935 3798 3983 3843 3800 3780 3326 3872 
3992 3936 2868 2753 3725 3967 3980 3792 3930 
3444 3693 4626 4630 4628 4632 4627 4631 4516 
4515 4520 4519 4629 4625 4518 4517 4522 4521 
4402 4406 4404 4408 4403 4407 4405 4401 4704 
4700 4524 4523 4528 4527 4526 4525 4513 4514 
4697 4701 4426 4430 4428 4432 4427 4431 4429 
4425 4490 4491 4495 4494 4370 4374 4298 4302 
4492 4493 4489 4496 4372 4376 4300 4304 4371 
4375 4202 4206 4299 4303 4373 4369 4301 4297 
4204 4208 4685 4684 4681 4688 4547 4546 4551 
4550 4459 4458 4463 4462 4548 4549 4545 4552 
4461 4460 4464 4457 4203 4207 4205 4201 4665 
4672 4668 4669 4671 4666 4667 4670 4657 4664 
4662 4663 4642 4643 4647 4646 4644 4645 4641 
4648 4683 4682 4687 4686 4702 4698 4703 4699 
4655 4654 4651 4650 4649 4656 4652 4653 4014 
4016 4306 4310 4308 4312 4538 4542 4358 4540 
4544 4322 4326 4307 4311 4360 4324 4328 4309 
4305 4015 4009 4539 4543 4705 4712 4708 4709 
4502 4378 4382 4359 4541 4537 4380 4384 4353 
4325 4321 4192 4503 4379 4383 4504 4323 4327 
4377 4186 4190 4243 4247 4381 4185 4188 4245 
4249 4497 4187 4191 4099 4103 4189 4101 4105 
4244 4248 4100 4104 4246 4250 4102 4106 4410 
4414 4412 4416 4411 4415 4413 4409 4438 4434 
4440 4436 4439 4435 4255 4437 4433 4130 4134 
4253 4242 4132 4136 4218 4222 4251 4220 4224 
4219 4223 4252 4256 4170 4174 4131 4135 4221 
4217 4254 4241 4172 4176 4133 4129 4466 4470 
4468 4472 4171 4175 4054 4173 4169 4056 4571 
4570 4575 4574 4274 4278 4467 4471 4573 4572 
4576 4569 4469 4465 4276 4107 4111 4280 4109 
4098 4275 4279 4277 4108 4112 4055 4273 4110 
4097 4049 4711 4706 4707 4710 
type 1 1023 int
2 2 2 2 2 2 2 2 2 
2 2 2 2 2 2 2 2 2 
2 2 2 2 2 2 2 2 2 
2 2 2 2 2 2 2 2 2 
2 2 2 2 2 2 2 2 2 
2 2 2 2 2 2 2 2 2 
2 2 2 2 2 2 2 2 2 
2 2 2 2 2 2 2 2 2 
2 2 2 2 2 2 2 2 2 
2 2 2 2 2 2 2 2 2 
2 2 2 2 2 2 2 2 2 
2 2 2 2 2 2 2 2 2 
2 2 2 2 2 2 2 2 2 
2 2 2 2 2 2 2 2 2 
2 2 2 2 2 2 2 2 2 
2 2 2 2 2 2 2 2 2 
2 2 2 2 2 2 2 2 2 
2 2 2 2 2 2 2 2 2 
2 2 2 2 2 2 2 2 2 
2 2 2 2 2 2 2 2 2 
2 2 2 2 2 2 2 2 2 
2 2 2 2 2 2 2 2 2 
2 2 2 2 2 2 2 2 2 
2 2 2 2 2 2 2 2 2 
2 2 2 2 2 2 2 2 2 
2 2 2 2 2 2 2 2 2 
2 2 2 2 2 2 2 2 2 
2 2 2 2 2 2 2 2 2 
2 2 2 2 2 2 2 2 2 
2 2 2 2 2 2 2 2 2 
2 2 2 2 2 2 2 2 2 
2 2 2 2 2 2 2 2 2 
2 2 2 2 2 2 2 2 2 
2 2 2 2 2 2 2 2 2 
2 2 2 2 2 2 2 2 2 
2 2 2 2 2 2 2 2 2 
2 2 2 2 2 2 2 2 2 
2 2 2 2 2 2 2 2 2 
2 2 2 2 2 2 2 2 2 
2 2 2 2 2 2 2 2 2 
2 2 2 2 2 2 2 2 2 
2 2 2 2 2 2 2 2 2 
2 2 2 2 2 2 2 2 2 
2 2 2 2 2 2 2 2 2 
2 2 2 2 2 2 2 2 2 
2 2 2 2 2 2 2 2 2 
2 2 2 2 2 2 2 2 2 
2 2 2 2 2 2 2 2 2 
2 2 2 2 2 2 2 2 2 
2 2 2 2 2 2 2 2 2 
2 2 2 2 2 2 2 2 2 
2 2 2 2 2 2 2 2 2 
2 2 2 2 2 2 2 2 2 
2 2 2 2 2 2 2 2 2 
2 2 2 2 2 2 2 2 2 
2 2 2 2 2 2 2 2 2 
2 2 2 2 2 2 2 2 2 
2 2 2 2 2 2 2 2 2 
2 2 2 2 2 2 2 2 2 
2 2 2 2 2 2 2 2 2 
2 2 2 2 2 2 2 2 2 
2 2 2 2 2 2 2 2 2 
2 2 2 2 2 2 2 2 2 
2 2 2 2 2 2 2 2 2 
2 2 2 2 2 2 2 2 2 
2 2 2 2 2 2 2 2 2 
2 2 2 2 2 2 2 2 2 
2 2 2 2 2 2 2 2 2 
2 2 2 2 2 2 2 2 2 
2 2 2 2 2 2 2 2 2 
2 2 2 2 2 2 2 2 2 
2 2 2 2 2 2 2 2 2 
2 2 2 2 2 2 2 2 2 
2 2 2 2 2 2 2 2 2 
2 2 2 2 2 2 2 2 2 
2 2 2 2 2 2 2 2 2 
2 2 2 2 2 2 2 2 2 
2 2 2 2 2 2 2 2 2 
2 2 2 2 2 2 2 2 2 
2 2 2 2 2 2 2 2 2 
2 2 2 2 2 2 2 2 2 
2 2 2 2 2 2 2 2 2 
2 2 2 2 2 2 2 2 2 
2 2 2 2 2 2 2 2 2 
2 2 2 2 2 2 2 2 2 
2 2 2 2 2 2 2 2 2 
2 2 2 2 2 2 2 2 2 
2 2 2 2 2 2 2 2 2 
2 2 2 2 2 2 2 2 2 
2 2 2 2 2 2 2 2 2 
2 2 2 2 2 2 2 2 2 
2 2 2 2 2 2 2 2 2 
2 2 2 2 2 2 2 2 2 
2 2 2 2 2 2 2 2 2 
2 2 2 2 2 2 2 2 2 
2 2 2 2 2 2 2 2 2 
2 2 2 2 2 2 2 2 2 
2 2 2 2 2 2 2 2 2 
2 2 2 2 2 2 2 2 2 
2 2 2 2 2 2 2 2 2 
2 2 2 2 2 2 2 2 2 
2 2 2 2 2 2 2 2 2 
2 2 2 2 2 2 2 2 2 
2 2 2 2 2 2 2 2 2 
2 2 2 2 2 2 2 2 2 
2 2 2 2 2 2 2 2 2 
2 2 2 2 2 2 2 2 2 
2 2 2 2 2 2 2 2 2 
2 2 2 2 2 2 2 2 2 
2 2 2 2 2 2 2 2 2 
2 2 2 2 2 2 2 2 2 
2 2 2 2 2 2 2 2 2 
2 2 2 2 2 2 2 2 2 
2 2 2 2 2 2 
i 3 1023 int
0 0 0 0 0 0 0 0 0 
0 0 0 0 0 0 0 0 0 
0 0 0 0 0 0 0 0 0 
0 0 0 0 0 0 0 0 0 
0 0 0 0 0 0 0 0 0 
0 0 0 0 0 0 0 0 0 
0 0 0 0 0 0 0 0 0 
0 0 0 0 0 0 0 0 0 
0 0 0 0 0 0 0 0 0 
0 0 0 0 0 0 0 0 0 
0 0 0 0 0 0 0 0 0 
0 0 0 0 0 0 0 0 0 
0 0 0 0 0 0 0 0 0 
0 0 0 0 0 0 0 0 0 
0 0 0 0 0 0 0 0 0 
0 0 0 0 0 0 0 0 0 
0 0 0 0 0 0 0 0 0 
0 0 0 0 0 0 0 0 0 
0 0 0 0 0 0 0 0 0 
0 0 0 0 0 0 0 0 0 
0 0 0 0 0 0 0 0 0 
0 0 0 0 0 0 0 0 0 
0 0 0 0 0 0 0 0 0 
0 0 0 0 0 0 0 0 0 
0 0 0 0 0 0 0 0 0 
0 0 0 0 0 0 0 0 0 
0 0 0 0 0 0 0 0 0 
0 0 0 0 0 0 0 0 0 
0 0 0 0 0 0 0 0 0 
0 0 0 0 0 0 0 0 0 
0 0 0 0 0 0 0 0 0 
0 0 0 0 0 0 0 0 0 
0 0 0 0 0 0 0 0 0 
0 0 0 0 0 0 0 0 0 
0 0 0 0 0 0 0 0 0 
0 0 0 0 0 0 0 0 0 
0 0 0 0 0 0 0 0 0 
0 0 0 0 0 0 0 0 0 
0 0 0 0 0 0 0 0 0 
0 0 0 0 0 0 0 0 0 
0 0 0 0 0 0 0 0 0 
0 0 0 0 0 0 0 0 0 
0 0 0 0 0 0 0 0 0 
0 0 0 0 0 0 0 0 0 
0 0 0 0 0 0 0 0 0 
0 0 0 0 0 0 0 0 0 
0 0 0 0 0 0 0 0 0 
0 0 0 0 0 0 0 0 0 
0 0 0 0 0 0 0 0 0 
0 0 0 0 0 0 0 0 0 
0 0 0 0 0 0 0 0 0 
0 0 0 0 0 0 0 0 0 
0 0 0 0 0 0 0 0 0 
0 0 0 0 0 0 0 0 0 
0 0 0 0 0 0 0 0 0 
0 0 0 0 0 0 0 0 0 
0 0 0 0 0 0 0 0 0 
0 0 0 0 0 0 0 0 0 
0 0 0 0 0 0 0 0 0 
0 0 0 0 0 0 0 0 0 
0 0 0 0 0 0 0 0 0 
0 0 0 0 0 0 0 0 0 
0 0 0 0 0 0 0 0 0 
0 0 0 0 0 0 0 0 0 
0 0 0 0 0 0 0 0 0 
0 0 0 0 0 0 0 0 0 
0 0 0 0 0 0 0 0 0 
0 0 0 0 0 0 0 0 0 
0 0 0 0 0 0 0 0 0 
0 0 0 0 0 0 0 0 0 
0 0 0 0 0 0 0 0 0 
0 0 0 0 0 0 0 0 0 
0 0 0 0 0 0 0 0 0 
0 0 0 0 0 0 0 0 0 
0 0 0 0 0 0 0 0 0 
0 0 0 0 0 0 0 0 0 
0 0 0 0 0 0 0 0 0 
0 0 0 0 0 0 0 0 0 
0 0 0 0 0 0 0 0 0 
0 0 0 0 0 0 0 0 0 
0 0 0 0 0 0 0 0 0 
0 0 0 0 0 0 0 0 0 
0 0 0 0 0 0 0 0 0 
0 0 0 0 0 0 0 0 0 
0 0 0 0 0 0 0 0 0 
0 0 0 0 0 0 0 0 0 
0 0 0 0 0 0 0 0 0 
0 0 0 0 0 0 0 0 0 
0 0 0 0 0 0 0 0 0 
0 0 0 0 0 0 0 0 0 
0 0 0 0 0 0 0 0 0 
0 0 0 0 0 0 0 0 0 
0 0 0 0 0 0 0 0 0 
0 0 0 0 0 0 0 0 0 
0 0 0 0 0 0 0 0 0 
0 0 0 0 0 0 0 0 0 
0 0 0 0 0 0 0 0 0 
0 0 0 0 0 0 0 0 0 
0 0 0 0 0 0 0 0 0 
0 0 0 0 0 0 0 0 0 
0 0 0 0 0 0 0 0 0 
0 0 0 0 0 0 0 0 0 
0 0 0 0 0 0 0 0 0 
0 0 0 0 0 0 0 0 0 
0 0 0 0 0 0 0 0 0 
0 0 0 0 0 0 0 0 0 
0 0 0 0 0 0 0 0 0 
0 0 0 0 0 0 0 0 0 
0 0 0 0 0 0 0 0 0 
0 0 0 0 0 0 0 0 0 
0 0 0 0 0 0 0 0 0 
0 0 0 0 0 0 0 0 0 
0 0 0 0 0 0 0 0 0 
0 0 0 0 0 0 0 0 0 
0 0 0 0 0 0 0 0 0 
0 0 0 0 0 0 0 0 0 
0 0 0 0 0 0 0 0 0 
0 0 0 0 0 0 0 0 0 
0 0 0 0 0 0 0 0 0 
0 0 0 0 0 0 0 0 0 
0 0 0 0 0 0 0 0 0 
0 0 0 0 0 0 0 0 0 
0 0 0 0 0 0 0 0 0 
0 0 0 0 0 0 0 0 0 
0 0 0 0 0 0 0 0 0 
0 0 0 0 0 0 0 0 0 
0 0 0 0 0 0 0 0 0 
0 0 0 0 0 0 0 0 0 
0 0 0 0 0 0 0 0 0 
0 0 0 0 0 0 0 0 0 
0 0 0 0 0 0 0 0 0 
0 0 0 0 0 0 0 0 0 
0 0 0 0 0 0 0 0 0 
0 0 0 0 0 0 0 0 0 
0 0 0 0 0 0 0 0 0 
0 0 0 0 0 0 0 0 0 
0 0 0 0 0 0 0 0 0 
0 0 0 0 0 0 0 0 0 
0 0 0 0 0 0 0 0 0 
0 0 0 0 0 0 0 0 0 
0 0 0 0 0 0 0 0 0 
0 0 0 0 0 0 0 0 0 
0 0 0 0 0 0 0 0 0 
0 0 0 0 0 0 0 0 0 
0 0 0 0 0 0 0 0 0 
0 0 0 0 0 0 0 0 0 
0 0 0 0 0 0 0 0 0 
0 0 0 0 0 0 0 0 0 
0 0 0 0 0 0 0 0 0 
0 0 0 0 0 0 0 0 0 
0 0 0 0 0 0 0 0 0 
0 0 0 0 0 0 0 0 0 
0 0 0 0 0 0 0 0 0 
0 0 0 0 0 0 0 0 0 
0 0 0 0 0 0 0 0 0 
0 0 0 0 0 0 0 0 0 
0 0 0 0 0 0 0 0 0 
0 0 0 0 0 0 0 0 0 
0 0 0 0 0 0 0 0 0 
0 0 0 0 0 0 0 0 0 
0 0 0 0 0 0 0 0 0 
0 0 0 0 0 0 0 0 0 
0 0 0 0 0 0 0 0 0 
0 0 0 0 0 0 0 0 0 
0 0 0 0 0 0 0 0 0 
0 0 0 0 0 0 0 0 0 
0 0 0 0 0 0 0 0 0 
0 0 0 0 0 0 0 0 0 
0 0 0 0 0 0 0 0 0 
0 0 0 0 0 0 0 0 0 
0 0 0 0 0 0 0 0 0 
0 0 0 0 0 0 0 0 0 
0 0 0 0 0 0 0 0 0 
0 0 0 0 0 0 0 0 0 
0 0 0 0 0 0 0 0 0 
0 0 0 0 0 0 0 0 0 
0 0 0 0 0 0 0 0 0 
0 0 0 0 0 0 0 0 0 
0 0 0 0 0 0 0 0 0 
0 0 0 0 0 0 0 0 0 
0 0 0 0 0 0 0 0 0 
0 0 0 0 0 0 0 0 0 
0 0 0 0 0 0 0 0 0 
0 0 0 0 0 0 0 0 0 
0 0 0 0 0 0 0 0 0 
0 0 0 0 0 0 0 0 0 
0 0 0 0 0 0 0 0 0 
0 0 0 0 0 0 0 0 0 
0 0 0 0 0 0 0 0 0 
0 0 0 0 0 0 0 0 0 
0 0 0 0 0 0 0 0 0 
0 0 0 0 0 0 0 0 0 
0 0 0 0 0 0 0 0 0 
0 0 0 0 0 0 0 0 0 
0 0 0 0 0 0 0 0 0 
0 0 0 0 0 0 0 0 0 
0 0 0 0 0 0 0 0 0 
0 0 0 0 0 0 0 0 0 
0 0 0 0 0 0 0 0 0 
0 0 0 0 0 0 0 0 0 
0 0 0 0 0 0 0 0 0 
0 0 0 0 0 0 0 0 0 
0 0 0 0 0 0 0 0 0 
0 0 0 0 0 0 0 0 0 
0 0 0 0 0 0 0 0 0 
0 0 0 0 0 0 0 0 0 
0 0 0 0 0 0 0 0 0 
0 0 0 0 0 0 0 0 0 
0 0 0 0 0 0 0 0 0 
0 0 0 0 0 0 0 0 0 
0 0 0 0 0 0 0 0 0 
0 0 0 0 0 0 0 0 0 
0 0 0 0 0 0 0 0 0 
0 0 0 0 0 0 0 0 0 
0 0 0 0 0 0 0 0 0 
0 0 0 0 0 0 0 0 0 
0 0 0 0 0 0 0 0 0 
0 0 0 0 0 0 0 0 0 
0 0 0 0 0 0 0 0 0 
0 0 0 0 0 0 0 0 0 
0 0 0 0 0 0 0 0 0 
0 0 0 0 0 0 0 0 0 
0 0 0 0 0 0 0 0 0 
0 0 0 0 0 0 0 0 0 
0 0 0 0 0 0 0 0 0 
0 0 0 0 0 0 0 0 0 
0 0 0 0 0 0 0 0 0 
0 0 0 0 0 0 0 0 0 
0 0 0 0 0 0 0 0 0 
0 0 0 0 0 0 0 0 0 
0 0 0 0 0 0 0 0 0 
0 0 0 0 0 0 0 0 0 
0 0 0 0 0 0 0 0 0 
0 0 0 0 0 0 0 0 0 
0 0 0 0 0 0 0 0 0 
0 0 0 0 0 0 0 0 0 
0 0 0 0 0 0 0 0 0 
0 0 0 0 0 0 0 0 0 
0 0 0 0 0 0 0 0 0 
0 0 0 0 0 0 0 0 0 
0 0 0 0 0 0 0 0 0 
0 0 0 0 0 0 0 0 0 
0 0 0 0 0 0 0 0 0 
0 0 0 0 0 0 0 0 0 
0 0 0 0 0 0 0 0 0 
0 0 0 0 0 0 0 0 0 
0 0 0 0 0 0 0 0 0 
0 0 0 0 0 0 0 0 0 
0 0 0 0 0 0 0 0 0 
0 0 0 0 0 0 0 0 0 
0 0 0 0 0 0 0 0 0 
0 0 0 0 0 0 0 0 0 
0 0 0 0 0 0 0 0 0 
0 0 0 0 0 0 0 0 0 
0 0 0 0 0 0 0 0 0 
0 0 0 0 0 0 0 0 0 
0 0 0 0 0 0 0 0 0 
0 0 0 0 0 0 0 0 0 
0 0 0 0 0 0 0 0 0 
0 0 0 0 0 0 0 0 0 
0 0 0 0 0 0 0 0 0 
0 0 0 0 0 0 0 0 0 
0 0 0 0 0 0 0 0 0 
0 0 0 0 0 0 0 0 0 
0 0 0 0 0 0 0 0 0 
0 0 0 0 0 0 0 0 0 
0 0 0 0 0 0 0 0 0 
0 0 0 0 0 0 0 0 0 
0 0 0 0 0 0 0 0 0 
0 0 0 0 0 0 0 0 0 
0 0 0 0 0 0 0 0 0 
0 0 0 0 0 0 0 0 0 
0 0 0 0 0 0 0 0 0 
0 0 0 0 0 0 0 0 0 
0 0 0 0 0 0 0 0 0 
0 0 0 0 0 0 0 0 0 
0 0 0 0 0 0 0 0 0 
0 0 0 0 0 0 0 0 0 
0 0 0 0 0 0 0 0 0 
0 0 0 0 0 0 0 0 0 
0 0 0 0 0 0 0 0 0 
0 0 0 0 0 0 0 0 0 
0 0 0 0 0 0 0 0 0 
0 0 0 0 0 0 0 0 0 
0 0 0 0 0 0 0 0 0 
0 0 0 0 0 0 0 0 0 
0 0 0 0 0 0 0 0 0 
0 0 0 0 0 0 0 0 0 
0 0 0 0 0 0 0 0 0 
0 0 0 0 0 0 0 0 0 
0 0 0 0 0 0 0 0 0 
0 0 0 0 0 0 0 0 0 
0 0 0 0 0 0 0 0 0 
0 0 0 0 0 0 0 0 0 
0 0 0 0 0 0 0 0 0 
0 0 0 0 0 0 0 0 0 
0 0 0 0 0 0 0 0 0 
0 0 0 0 0 0 0 0 0 
0 0 0 0 0 0 0 0 0 
0 0 0 0 0 0 0 0 0 
0 0 0 0 0 0 0 0 0 
0 0 0 0 0 0 0 0 0 
0 0 0 0 0 0 0 0 0 
0 0 0 0 0 0 0 0 0 
0 0 0 0 0 0 0 0 0 
0 0 0 0 0 0 0 0 0 
0 0 0 0 0 0 0 0 0 
0 0 0 0 0 0 0 0 0 
0 0 0 0 0 0 0 0 0 
0 0 0 0 0 0 0 0 0 
0 0 0 0 0 0 0 0 0 
0 0 0 0 0 0 0 0 0 
0 0 0 0 0 0 0 0 0 
0 0 0 0 0 0 0 0 0 
0 0 0 0 0 0 0 0 0 
0 0 0 0 0 0 0 0 0 
0 0 0 0 0 0 0 0 0 
0 0 0 0 0 0 0 0 0 
0 0 0 0 0 0 0 0 0 
0 0 0 0 0 0 0 0 0 
0 0 0 0 0 0 0 0 0 
0 0 0 0 0 0 0 0 0 
0 0 0 0 0 0 0 0 0 
0 0 0 0 0 0 0 0 0 
0 0 0 0 0 0 0 0 0 
0 0 0 0 0 0 0 0 0 
0 0 0 0 0 0 0 0 0 
0 0 0 0 0 0 0 0 0 
0 0 0 0 0 0 0 0 0 
0 0 0 0 0 0 0 0 0 
0 0 0 0 0 0 0 0 0 
0 0 0 0 0 0 0 0 0 
0 0 0 0 0 0 0 0 0 
0 0 0 0 0 0 0 0 0 
0 0 0 0 0 0 0 0 0 
0 0 0 0 0 0 0 0 0 
0 0 0 0 0 0 0 0 0 
0 0 0 0 0 0 0 0 0 
0 0 0 0 0 0 0 0 0 
0 0 0 0 0 0 0 0 0 
0 0 0 0 0 0 0 0 0 

v 3 1023 double
0.0080156891962 -0.0015029605931 0.004447886628 0.010048934566 -0.00070430313784 0.0034683114765 -0.029080006669 0.04353332093 0.035337047209 
-0.015970077835 0.15166809512 0.0078683031147 -0.13317801248 0.16221021249 0.0070055395523 0.0041098429884 0.30328549985 0.0085481915591 
0.0046274359853 0.008066801115 -0.0032981339191 -0.0056303209371 0.0085283445581 0.016039859049 -0.027173646627 0.011902077028 0.021408443641 
-0.19048707261 0.037453699347 -0.044591951551 0.0084999301845 0.1323890659 0.0081926522313 0.0086390268809 0.038845535794 -0.0015567670795 
0.019798951085 0.040401127349 0.0076420378047 -0.078830096885 0.05744859893 0.00019912973901 -0.073359751146 0.048740936439 0.033533506534 
0.00042695319134 0.13846042764 0.029105660503 0.088754276994 0.22662720955 0.01755179333 -0.040956546694 0.26237529859 -0.077021290032 
-0.015825932323 -0.0093599622889 0.054880867859 -0.13444462905 -0.096310921272 -0.048121224652 0.012445841211 0.010247161759 0.022377678425 
-0.055110835015 0.016838623604 0.044337729087 -0.021953360345 0.025884201396 0.04599242959 0.012718550083 0.067616469755 0.01425317236 
-0.073813710025 0.08258838943 0.042032440437 0.096087284017 0.12261288527 -0.004294039915 -0.097613623005 0.14261836488 -0.069878233524 
-0.052806535397 0.024323413529 0.073682984456 -0.024108631974 0.052866387327 -0.0092589620461 -0.067244853967 0.04522047833 -0.011281584556 
-0.046543241901 0.073906791384 0.057776194531 -0.005644904192 0.11634111591 0.004857108426 -0.00066328633309 0.27334262606 0.093316999735 
-0.037243658487 0.16106833436 -0.020064332534 -0.037243180744 0.16071660639 0.035674333075 0.018496112503 0.16110806985 0.035674792898 
0.018496009381 0.16145968086 -0.02006508507 -0.023837693753 0.013424326694 0.030482934101 0.017418324533 0.057616216922 -0.030352324845 
-0.031250205073 0.21919385107 0.082559184695 -0.29508440245 -0.071096543414 -0.22995170811 -0.013011560337 0.21057775716 -0.067361238852 
-0.02568388976 0.17898130461 0.043235618101 0.049970442685 -0.065324642116 0.045880628903 0.010421709988 0.032597662155 0.089304931032 
-0.0032792434209 0.15987574977 -0.11366743156 0.035121297983 0.12847363527 0.096812815135 -0.1632132347 0.016458060305 -0.098071338305 
8.7304082862e-05 0.05658216547 0.0490846904 -0.1093329276 0.013073293453 -0.054392005946 0.084560273476 0.0049494460269 0.023097140815 
0.17906924697 0.04465336239 0.12954131523 -0.084078667498 0.04976864582 -0.029746205785 -0.10514529648 0.01736526256 0.032910920883 
0.0073616794846 0.22860097262 0.0056379145434 -0.023683525094 0.038479039595 0.077669425022 0.011388376557 0.041364487349 -0.11565082641 
-0.041178332009 0.14957725344 0.14796284926 -0.081077584478 0.27179021998 -0.19453844851 0.015727314557 0.021455075493 -0.0024677751594 
0.095677381331 0.0044200649861 -0.086041273012 0.12805066387 0.097112908791 0.070525714734 -0.0039167831326 0.051254836739 -0.001557137884 
0.042602169189 0.089323789222 -0.065956124659 0.088817694295 0.1124998154 -0.053149249242 0.21273066105 0.083784470045 0.0040210919325 
-0.016476201133 0.099454444818 -0.084306564822 -0.011140416409 0.097767829241 -0.12921837017 0.086954209449 0.2526704874 -0.16366621469 
0.13721431181 0.10181133851 -0.021435361436 0.021048419661 0.14836727693 0.023197587498 0.032153006952 0.017443458787 0.013840565836 
0.0720265258 0.092481050782 0.10567728676 0.079376475812 -0.018818510325 0.031957979724 0.028538407798 0.025056636625 -0.064268107381 
0.1287683514 0.19121853907 0.11076579337 0.068650783752 0.018026213225 0.060475464125 0.031590655792 0.043572963739 -0.02529784089 
0.10344903995 0.054815171856 -0.0038259629395 -0.033229108723 0.13146619811 -0.072439225811 -0.15104217532 0.21350433729 -0.08847513098 
-0.051494926626 0.00015828138659 0.031825417383 0.13889610943 -0.022972110717 0.059703086428 0.0027558020571 0.066480200587 0.020948937278 
-0.025594285419 -0.014935601697 -0.022341376857 -0.019593090008 0.057115403233 0.099738465183 0.0094198569489 0.15103026516 -0.022541178981 
-0.0027343479842 0.020591615742 0.016982238916 -0.02456028625 0.011359228832 -0.0113720337 0.027032685635 0.021794619309 -0.024559164227 
-0.079995245439 -0.017084149868 -0.024509996072 -0.01040054753 0.0058004044742 0.04555054737 0.014928890544 0.04441030584 -0.041816267398 
0.048239276178 0.099225294711 0.24497616456 -0.047772226234 0.0132061549 0.03151757883 0.080529813377 0.0057628936695 0.0071294393731 
-0.0096628145522 0.033629140474 0.017212347142 0.0050733256563 0.016862138436 0.042681092749 -0.010215913331 0.035447076697 0.029717211007 
0.049403257311 0.043097090476 -0.013412633032 -0.0019492195281 0.06894765178 0.027024499287 0.017297158063 0.051523199259 0.034196204277 
-0.029513261594 0.16173266479 0.02841832475 0.058714015235 0.0017270508604 -0.0052240249124 -0.029110559063 0.018207847277 -0.076876075613 
-0.0039913111495 0.045910097796 0.029473773607 0.058087612515 0.020893658911 0.057573748421 -0.19451755495 0.039668183639 -0.064885900376 
-0.0061600299512 0.11429591419 0.13432692073 -0.021958819501 0.054191597684 0.048298013441 0.043123495637 0.038606691854 0.058239888712 
-0.093883439559 0.14252171153 0.082969879669 0.045861773211 0.010416166083 0.066043061475 0.024759942221 0.078324211804 0.044473428344 
-0.028734807798 0.24194419456 -0.0010331898798 -0.046054797591 0.035397971386 0.092164701031 -0.0033120346244 0.036987221945 0.014520019751 
0.040692486761 0.040028993819 0.016705036457 -0.01446684177 0.032878853391 -0.0024533046815 -0.029776586761 -0.0047726680258 0.054791576141 
0.015763933914 0.0065948336356 0.094849352011 0.0058662362083 -0.0047575354982 0.1205492242 -0.0045435044424 0.026690186948 0.10070280318 
-0.012212897362 0.075823784745 -0.18361467497 0.048689639876 0.084903789202 0.047570047855 0.012190777852 0.32929773123 0.012633784709 
0.060307058126 0.025158785034 0.085434574605 -0.018697854525 0.19836571032 0.034234384001 -0.076416026534 0.17725342488 -0.024615689046 