# vtk DataFile Version 5.1
Generated by LIGGGHTS
ASCII
DATASET POLYDATA
POINTS 1149 float
-0.10954 0.0559021 -0.143846 -0.0603795 0.0549817 -0.142728 -0.109389 0.0659732 -0.144005 
-0.0533304 0.0907526 -0.144642 -0.0538833 0.100561 -0.145042 -0.0499473 0.14732 -0.144705 
-0.0987791 0.123064 -0.0138632 -0.0500022 0.156376 -0.14476 -0.0409466 0.156376 -0.14476 
-0.0224126 0.16278 -0.143628 -0.0141463 0.16278 -0.143628 -0.100696 0.172307 -0.147205 
-0.0929568 0.172307 -0.147205 -0.0224126 0.171046 -0.143628 -0.0141463 0.171046 -0.143628 
-0.100696 0.180047 -0.147205 -0.0929568 0.180047 -0.147205 -0.0595866 0.0647173 -0.141186 
-0.0551005 0.073281 -0.139073 -0.057712 0.0827895 -0.140576 -0.14526 0.10906 -0.139473 
-0.0135413 0.107971 -0.13765 -0.145459 0.119368 -0.139673 -0.049088 0.132305 -0.140407 
-0.0493534 0.141509 -0.140673 -0.0694789 0.182434 -0.00507942 -0.016203 0.0601489 -0.0108992 
-0.0962367 0.162433 -0.0182573 -0.0500022 0.156376 -0.135704 -0.0409466 0.156376 -0.135704 
-0.0224126 0.16278 -0.135361 -0.0141463 0.16278 -0.135361 -0.100696 0.172307 -0.139465 
-0.0929568 0.172307 -0.139465 -0.0224126 0.171046 -0.135361 -0.0141463 0.171046 -0.135361 
-0.100696 0.180047 -0.139465 -0.0929568 0.180047 -0.139465 -0.109199 0.0973394 -0.129647 
-0.143122 0.123726 -0.133559 -0.0770864 0.182434 -0.00507942 -0.0694789 0.174827 -0.00507942 
-0.0559304 0.151674 -0.131821 -0.0471379 0.151674 -0.131821 -0.127192 0.153792 -0.131423 
-0.118531 0.153792 -0.131423 -0.127192 0.162453 -0.131423 -0.118531 0.162453 -0.131423 
-0.0559304 0.160466 -0.131821 -0.0471379 0.160466 -0.131821 -0.0269235 0.17221 -0.130872 
-0.0191839 0.17221 -0.130872 -0.0269235 0.179949 -0.130872 -0.0191839 0.179949 -0.130872 
-0.13064 0.0610414 -0.125988 -0.144005 0.065705 -0.126208 -0.107531 0.105128 -0.123329 
-0.108188 0.113651 -0.125249 -0.123423 0.123333 -0.121962 -0.0582307 0.129142 -0.122001 
-0.0559304 0.151674 -0.123029 -0.0471379 0.151674 -0.123029 -0.127192 0.153792 -0.122762 
-0.118531 0.153792 -0.122762 -0.127192 0.162453 -0.122762 -0.118531 0.162453 -0.122762 
-0.115451 0.163802 -0.127126 -0.107316 0.163802 -0.127126 -0.0559304 0.160466 -0.123029 
-0.0471379 0.160466 -0.123029 -0.115451 0.171936 -0.127126 -0.107316 0.171936 -0.127126 
-0.0269235 0.17221 -0.123132 -0.0191839 0.17221 -0.123132 -0.0269235 0.179949 -0.123132 
-0.0191839 0.179949 -0.123132 -0.0791316 0.0610605 -0.11328 -0.144323 0.0717314 -0.115379 
-0.0793196 0.0726924 -0.113148 -0.0427465 0.0691619 -0.113674 -0.106132 0.08203 -0.113187 
-0.106398 0.0928093 -0.113452 -0.0315024 0.135511 -0.114633 -0.142687 0.148134 -0.114368 
-0.133631 0.148134 -0.114368 -0.142687 0.15719 -0.114368 -0.133631 0.15719 -0.114368 
-0.115451 0.163802 -0.118991 -0.107316 0.163802 -0.118991 -0.115451 0.171936 -0.118991 
-0.107316 0.171936 -0.118991 -0.0553722 0.174696 -0.113495 -0.0477647 0.174696 -0.113495 
-0.136736 0.177367 -0.1197 -0.129261 0.177367 -0.1197 -0.0553722 0.182303 -0.113495 
-0.0477647 0.182303 -0.113495 -0.136736 0.184843 -0.1197 -0.129261 0.184843 -0.1197 
-0.140846 0.0554046 -0.105571 -0.105923 0.0558221 -0.105794 -0.033419 0.0554761 -0.111844 
-0.142687 0.148134 -0.105312 -0.133631 0.148134 -0.105312 -0.142687 0.15719 -0.105312 
-0.133631 0.15719 -0.105312 -0.0553722 0.174696 -0.105888 -0.0477647 0.174696 -0.105888 
-0.136736 0.177367 -0.112224 -0.129261 0.177367 -0.112224 -0.0553722 0.182303 -0.105888 
-0.0477647 0.182303 -0.105888 -0.136736 0.184843 -0.112224 -0.129261 0.184843 -0.112224 
-0.0376925 0.0940289 -0.103091 -0.00970756 0.104549 -0.10087 -0.00996953 0.115933 -0.101134 
-0.0549244 0.117216 -0.0931539 -0.104898 0.162433 -0.0182573 -0.0814801 0.153762 -0.0190204 
-0.025682 0.156593 -0.0909235 -0.0166264 0.156593 -0.0909235 -0.075617 0.175836 -0.0902161 
-0.0770964 0.175351 -0.0976008 -0.0771542 0.182907 -0.0957654 -0.0696788 0.175432 -0.0957654 
-0.0696788 0.182907 -0.0957654 -0.0682418 0.0713567 -0.0847291 -0.0643094 0.0811063 -0.0849396 
-0.0862438 0.123586 -0.0889079 -0.080508 0.159683 -0.0854696 -0.0721101 0.159683 -0.0854696 
-0.080183 0.16754 -0.0853376 -0.0840107 0.171049 -0.0868931 -0.0760725 0.170679 -0.0868036 
-0.0719837 0.16791 -0.0854271 -0.0836857 0.178247 -0.0867611 -0.0773266 0.177876 -0.0849088 
-0.0771542 0.182907 -0.08829 -0.0696788 0.175432 -0.08829 -0.0696788 0.182907 -0.08829 
-0.051051 0.0568999 -0.0819529 -0.0647181 0.107884 -0.0772712 -0.0893964 0.148056 -0.0772831 
-0.0803409 0.148056 -0.0772831 -0.0906673 0.153762 -0.0190204 -0.0962367 0.153772 -0.0182573 
-0.124015 0.153903 -0.0781444 -0.115354 0.153903 -0.0781444 -0.0893964 0.157112 -0.0772831 
-0.0811568 0.155373 -0.076482 -0.0721101 0.159683 -0.0770718 -0.025682 0.156593 -0.0818679 
-0.0166264 0.156593 -0.0818679 -0.124015 0.162564 -0.0781444 -0.115354 0.162564 -0.0781444 
-0.079692 0.161422 -0.0778729 -0.0802887 0.167723 -0.0769372 -0.083905 0.170866 -0.079156 
-0.0759665 0.170538 -0.0790319 -0.0720897 0.168051 -0.0770614 -0.0836857 0.178247 -0.0790215 
-0.0759732 0.178335 -0.077554 -0.115322 0.0577251 -0.0710341 -0.102122 0.0869396 -0.0708927 
-0.0183655 0.0851047 -0.074382 -0.10239 0.0969895 -0.0720207 -0.0627921 0.107332 -0.0686372 
-0.0426445 0.137159 -0.0730439 -0.0118694 0.143968 -0.0688276 -0.0882837 0.163148 -0.00191279 
-0.0888629 0.147238 -0.0695637 -0.0803409 0.148056 -0.0682275 -0.0430189 0.146692 -0.0732953 
-0.0334371 0.146692 -0.0732953 -0.124015 0.153903 -0.0694835 -0.115354 0.153903 -0.0694835 
-0.0887674 0.156242 -0.0697872 -0.0803409 0.157112 -0.0682275 -0.124015 0.162564 -0.0694835 
-0.115354 0.162564 -0.0694835 -0.0844067 0.16736 -0.0722806 -0.0764035 0.16736 -0.0722806 
-0.0844067 0.175364 -0.0722806 -0.0764035 0.175364 -0.0722806 -0.108025 0.176656 -0.0732103 
-0.10055 0.176656 -0.0732103 -0.108025 0.184131 -0.0732103 -0.10055 0.184131 -0.0732103 
-0.0468937 0.0568955 -0.0667484 -0.11552 0.0691911 -0.0607253 -0.0243023 0.0693408 -0.0598582 
-0.0964224 0.151223 -0.0668857 -0.0881635 0.15204 -0.0655494 -0.0430189 0.146692 -0.0637135 
-0.0334371 0.146692 -0.0637135 -0.0964224 0.160015 -0.0668857 -0.088259 0.160884 -0.065326 
-0.0844067 0.16736 -0.0642774 -0.0764035 0.16736 -0.0642774 -0.0844067 0.175364 -0.0642774 
-0.0764035 0.175364 -0.0642774 -0.108025 0.176656 -0.065735 -0.10055 0.176656 -0.065735 
-0.108025 0.184131 -0.065735 -0.10055 0.184131 -0.065735 -0.113221 0.112671 -0.0586884 
-0.0426085 0.133239 -0.00115547 -0.0520737 0.133239 -0.00115547 -0.0964224 0.151223 -0.0580932 
-0.08763 0.151223 -0.0580932 -0.0964224 0.160015 -0.0580932 -0.08763 0.160015 -0.0580932 
-0.0411549 0.161616 -0.0594985 -0.0328886 0.161616 -0.0594985 -0.0411549 0.169882 -0.0594985 
-0.0328886 0.169882 -0.0594985 -0.0529626 0.0570937 -0.0495144 -0.0120835 0.0633843 -0.0519163 
-0.0825843 0.0825624 -0.0479414 -0.135531 0.102594 -0.0464906 -0.14195 0.135629 -0.0469984 
-0.0411549 0.161616 -0.0512322 -0.0328886 0.161616 -0.0512322 -0.0411549 0.169882 -0.0512322 
-0.0328886 0.169882 -0.0512322 -0.0321897 0.0547729 -0.0406702 -0.0559107 0.122288 -0.006842 
-0.0558378 0.112297 -0.00689659 -0.0345478 0.153208 -0.041718 -0.0253782 0.152998 -0.0416207 
-0.0281051 0.156233 -0.0446324 -0.0195932 0.156023 -0.044535 -0.0281226 0.164553 -0.044535 
-0.0195932 0.164553 -0.044535 -0.0712411 0.071827 -0.0345796 -0.127583 0.104206 -0.0307995 
-0.070063 0.120999 -0.0343591 -0.0261654 0.0601138 -0.00255456 -0.0694789 0.182434 -0.0126869 
-0.104349 0.145639 -0.0326997 -0.0770864 0.182434 -0.0126869 -0.0345478 0.153208 -0.0325309 
-0.0253607 0.153208 -0.0325309 -0.0281226 0.156023 -0.0360056 -0.0195932 0.156023 -0.0360056 
-0.0281226 0.164553 -0.0360056 -0.0195932 0.164553 -0.0360056 -0.0286902 0.130723 -0.0293131 
-0.0801489 0.171283 -0.00191279 -0.0770864 0.174827 -0.00507942 -0.0694789 0.174827 -0.0126869 
-0.0801489 0.171283 -0.0100476 -0.0770864 0.174827 -0.0126869 -0.0882837 0.171283 -0.0100476 
-0.0582948 0.149752 -0.0292227 -0.0488445 0.149752 -0.0292227 -0.104898 0.153772 -0.0269183 
-0.0962367 0.153772 -0.0269183 -0.0906673 0.153762 -0.0282075 -0.0814801 0.153762 -0.0282075 
-0.104898 0.162433 -0.0269183 -0.0962367 0.162433 -0.0269183 -0.0954183 0.0625833 -0.0191085 
-0.0945101 0.0734483 -0.0188968 -0.0882837 0.171283 -0.00191279 -0.0801489 0.163148 -0.00191279 
-0.0801489 0.163148 -0.0100476 -0.0882837 0.163148 -0.0100476 -0.0582948 0.149752 -0.0197725 
-0.0488445 0.149752 -0.0197725 -0.104898 0.153772 -0.0182573 -9.64579e-05 0.0762993 0.00592826 
-0.0977433 0.145836 0.00144732 -0.0386278 0.177122 0.13028 -0.0977982 0.154969 0.00141987 
-0.088611 0.154969 0.00141987 -0.0754051 0.163131 0.00404147 -0.0672703 0.163131 0.00404147 
-0.0754051 0.171266 0.00404147 -0.0672703 0.171266 0.00404147 -0.106226 0.0547891 0.00843253 
-0.0241192 0.0546719 0.0144256 -0.106383 0.0648709 0.00819393 -0.0248589 0.065659 0.0149152 
-0.144802 0.0809093 0.0141537 -0.0870805 0.0792461 0.0138013 -0.0878429 0.0912507 0.0133445 
-0.0748374 0.097576 0.0109508 -0.075105 0.109268 0.0106833 -0.032583 0.110912 0.0145913 
-0.0326858 0.120905 0.0144993 -0.142906 0.149689 0.0120708 -0.133982 0.149689 0.0120708 
-0.0464995 0.177122 0.13028 -0.0643135 0.176559 0.129891 -0.142906 0.158613 0.0120708 
-0.133982 0.158613 0.0120708 -0.109731 0.156267 0.00848486 -0.101813 0.156645 0.00848328 
-0.0971877 0.154591 0.0106086 -0.088611 0.154969 0.010607 -0.0156422 0.159314 0.011275 
-0.00724431 0.159314 0.011275 -0.109731 0.164797 0.00848486 -0.101202 0.164797 0.00848486 
-0.0754051 0.163131 0.0121762 -0.0672703 0.163131 0.0121762 -0.0156422 0.167712 0.011275 
-0.00724431 0.167712 0.011275 -0.0750154 0.170857 0.0115177 -0.0669494 0.170982 0.0117116 
-0.0949456 0.105525 0.0168573 -0.0688691 0.113066 0.0206569 -0.099786 0.118146 0.0169895 
-0.099892 0.127226 0.0167328 -0.0691356 0.123244 0.0203905 -0.142906 0.149689 0.0209948 
-0.133982 0.149689 0.0209948 -0.00985644 0.144685 0.0153254 -0.0356449 0.17314 0.140452 
-0.142906 0.158613 0.0209948 -0.133982 0.158613 0.0209948 -0.109731 0.156267 0.0170143 
[...]
POINT_DATA 1149
FIELD FieldData 8
id 1 1149 int
2755 2648 3023 3726 3744 3884 3815 2833 2837 
3248 3252 3465 3469 3250 3254 3467 3471 2901 
3296 3586 3781 3773 3801 3844 3873 3589 3133 
3028 2834 2838 3249 3253 3466 3470 3251 3255 
3468 3472 3745 3823 3602 3604 2967 2971 3031 
3035 3033 3037 2969 2973 3473 3477 3475 3479 
2739 3024 3757 3785 3814 3830 2968 2972 3032 
3036 3034 3038 3302 3306 2970 2974 3304 3308 
3474 3478 3476 3480 3180 3297 3403 3242 3685 
3727 3852 2839 2843 2841 2845 3303 3307 3305 
3309 3591 3595 3636 3640 3593 3597 3638 3642 
2823 2961 3025 2840 2844 2842 2846 3592 3596 
3637 3641 3594 3598 3639 3643 3734 3766 3793 
3802 3050 2758 2849 2853 3645 3644 3646 3648 
3650 3359 3686 3824 3185 3189 3187 3481 3485 
3191 3483 3463 3647 3649 3651 2756 3774 2855 
2830 2771 3030 3039 3043 2857 2828 3190 2850 
2854 3041 3045 3186 3188 3482 3464 3184 3484 
3462 3026 3716 3711 3740 3767 3858 3877 3311 
2856 2829 2562 2566 3040 3044 2858 2827 3042 
3046 3362 3366 3364 3368 3652 3656 3654 3634 
2824 3243 3404 2975 2979 2563 2559 2977 2966 
3363 3367 3365 3361 3653 3635 3655 3633 3786 
3845 3846 2976 2980 2978 2965 3256 3260 3258 
3247 2825 3181 3687 3758 3853 3257 3261 3259 
3246 2962 3808 3787 2762 2766 3138 3142 3140 
3144 3405 3759 3809 3134 3590 3878 3601 2763 
2767 3139 3143 3141 3137 3835 3300 3600 3603 
3301 3599 3312 2653 2657 3047 3051 2770 2759 
3049 3029 3135 3360 3313 3315 3314 3310 2654 
2650 3048 3519 3885 3409 2778 2782 3317 3321 
3319 3323 2902 2963 3182 3244 3688 3631 3720 
3746 3775 3782 3810 2906 2910 3438 3435 2908 
2912 3147 3151 2779 2783 3194 3198 3149 3153 
3318 3322 3196 3200 3320 3316 3768 3788 3803 
3831 3816 2907 2911 3879 3610 2909 2913 3148 
3152 3195 2786 2775 3199 3150 3154 3371 3375 
3197 3201 3412 3416 3490 3494 3498 3499 3502 
3503 3373 3377 3414 3418 3492 3496 3501 3500 
3504 3505 3298 3587 3760 3747 3794 3825 3836 
3854 3863 3410 3606 2787 2774 3372 3376 3413 
3417 3491 3495 3374 3378 3415 3419 3493 3497 
3461 3721 3783 3056 3060 3064 3068 3058 3062 
3066 3070 2826 3136 3406 3735 3847 3057 3061 
3065 3069 3072 3076 3059 3063 3067 3071 3074 
3078 3506 3510 3508 3512 3027 3728 3761 3769 
3073 3077 3075 3079 3507 3511 3509 3513 3795 
3859 3155 3159 3157 3146 2757 3299 3864 2664 
2668 3156 3160 3158 3145 3420 3424 3422 3426 
2964 3245 3407 3754 3874 3605 3080 3055 3082 
3053 3421 3425 3423 3427 3776 3837 3437 2903 
3609 3611 3607 3875 2665 2669 2743 2747 2914 
2918 2672 2676 3081 3054 2916 2920 3083 3052 
3183 3588 3736 2925 2658 3729 3848 2744 2740 
2915 2919 2673 2677 2917 2921 3817 3865 3880 
2689 3431 3411 3436 3433 3514 3489 3516 3487 
2509 2649 3748 3804 2905 2923 3886 3429 2982 
2986 3379 3383 2984 2988 3515 3488 3370 3517 
3486 2904 2924 2983 2987 3202 3206 3204 3193 
3380 3384 2985 2981 3381 3382 3369 3855 3866 
2859 2863 2659 2688 3203 3207 3205 3192 3658 
3662 3660 3664 3689 3632 3439 3887 2926 2680 
2684 2922 2685 3408 2862 2866 3428 3432 3430 
3434 3659 3663 3661 3657 3690 3722 3612 3608 
2681 3818 3849 3876 2869 2695 2699 3089 3093 
2998 3388 3392 3091 3095 2996 3000 3390 3394 
2927 3161 3717 3741 3811 3838 3867 2940 2944 
2932 2936 2696 2700 2942 2946 2934 2938 3097 
3101 3090 3094 2994 3330 3334 3389 3393 3099 
3103 3092 3096 3332 3336 3387 3391 3762 3789 
2941 2945 2933 2937 2943 2947 2935 2939 3098 
3102 2995 2999 3331 3335 3100 3104 2997 3001 
3333 3337 3524 3528 3526 3530 3730 3749 3860 
3888 3535 3621 3617 2875 2879 3266 3270 3268 
3272 3525 3529 3527 3531 2867 3440 3665 3537 
3533 2870 2899 2876 2880 3165 3169 3212 3216 
3167 3171 3214 3267 3218 3271 3269 3273 3737 
3770 3796 3839 3889 2792 2883 2887 3166 3170 
3213 3217 3168 3164 3215 3219 2748 2989 3712 
3856 3881 2803 3890 2884 2888 3105 3109 3107 
3111 2591 3208 3691 3731 3755 3784 3777 3812 
3819 3840 2900 3868 3618 3522 3106 3110 3274 
3278 3338 3342 3108 3112 3276 3265 3340 3344 
3446 3450 3448 3452 2481 2749 3162 3385 3805 
3826 3882 2791 3619 3622 3275 3279 3346 3350 
3339 3343 3220 3224 3277 3264 3348 3328 3341 
3345 3447 3451 3222 3211 3449 3445 3262 3441 
3666 3869 2703 2692 3347 3329 3221 3225 3349 
3327 3223 3210 3386 3518 3832 2804 3523 3534 
3620 2795 2799 3696 3700 3698 3702 3850 3616 
3536 2704 2691 3697 3701 3699 3695 3813 3827 
3841 3532 3615 3891 3085 2796 2800 2891 2895 
2482 2750 3763 3778 3797 3116 3087 3114 3086 
2892 2896 2483 2751 3613 3842 3115 3088 3002 
3006 2948 2952 3010 3014 3004 3008 2950 2930 
3012 2992 3713 3003 3007 2949 2931 3011 2993 
3005 3009 2951 2929 3013 2991 3113 3263 3324 
3614 3779 3806 3870 2713 2717 3544 3548 3546 
3550 2790 3084 3714 3738 3764 3790 3820 3851 
2714 2718 3545 3549 3547 3551 3667 3692 3723 
3732 3750 3771 3828 2690 2928 3442 3718 3742 
3791 3861 3892 2820 3552 3556 3560 3564 3554 
3558 3562 3566 3715 3833 3893 3281 3352 3356 
3553 3557 3628 3561 3358 3565 3555 3559 3563 
3567 3739 3751 3756 3807 2954 2958 3173 3177 
2956 2960 3175 3179 3353 3357 3624 3354 3355 
3351 3626 3672 3671 3629 3630 3677 3675 3676 
3678 3674 3673 3780 2721 2725 2955 2959 3174 
3178 3119 3123 2957 2953 3176 3172 3121 3125 
3625 3454 3456 3458 3460 3627 3623 3668 3834 
3016 3020 2722 2726 3733 3444 3018 3022 3120 
3124 3122 3126 3455 3459 3679 3681 3683 3670 
3457 3453 3520 3719 3798 3821 3862 3017 3021 
3693 2754 3019 3015 3680 3682 3684 3669 2868 
3209 3743 3752 3325 3765 3843 3871 3396 3400 
3398 3402 3704 3708 3706 3710 3799 3857 2729 
2733 3397 3401 3228 3232 3399 3568 3395 3572 
3230 3234 3570 3574 3705 3709 3707 3703 3443 
3792 3829 2737 2708 3282 3286 3229 3233 3284 
3569 3288 3573 3576 3580 3231 3235 3584 3541 
3571 3575 3578 3582 3543 3539 2550 2484 2752 
3822 3872 2730 2734 3236 3240 3238 3227 3283 
3287 3285 3289 3577 3581 3585 3540 3579 3583 
3542 3538 3772 2738 2707 3237 3241 3239 3226 
2753 3521 3753 3800 3883 2990 3292 3117 3326 
3694 3163 3280 3293 3295 3291 3130 3294 2807 
2819 2808 2811 2815 3127 3131 3129 3118 3724 
3725 3290 3132 2812 2816 3128 
type 1 1149 int
2 2 2 2 2 2 2 2 2 
2 2 2 2 2 2 2 2 2 
2 2 2 2 2 2 2 2 2 
2 2 2 2 2 2 2 2 2 
2 2 2 2 2 2 2 2 2 
2 2 2 2 2 2 2 2 2 
2 2 2 2 2 2 2 2 2 
2 2 2 2 2 2 2 2 2 
2 2 2 2 2 2 2 2 2 
2 2 2 2 2 2 2 2 2 
2 2 2 2 2 2 2 2 2 
2 2 2 2 2 2 2 2 2 
2 2 2 2 2 2 2 2 2 
2 2 2 2 2 2 2 2 2 
2 2 2 2 2 2 2 2 2 
2 2 2 2 2 2 2 2 2 
2 2 2 2 2 2 2 2 2 
2 2 2 2 2 2 2 2 2 
2 2 2 2 2 2 2 2 2 
2 2 2 2 2 2 2 2 2 
2 2 2 2 2 2 2 2 2 
2 2 2 2 2 2 2 2 2 
2 2 2 2 2 2 2 2 2 
2 2 2 2 2 2 2 2 2 
2 2 2 2 2 2 2 2 2 
2 2 2 2 2 2 2 2 2 
2 2 2 2 2 2 2 2 2 
2 2 2 2 2 2 2 2 2 
2 2 2 2 2 2 2 2 2 
2 2 2 2 2 2 2 2 2 
2 2 2 2 2 2 2 2 2 
2 2 2 2 2 2 2 2 2 
2 2 2 2 2 2 2 2 2 
2 2 2 2 2 2 2 2 2 
2 2 2 2 2 2 2 2 2 
2 2 2 2 2 2 2 2 2 
2 2 2 2 2 2 2 2 2 
2 2 2 2 2 2 2 2 2 
2 2 2 2 2 2 2 2 2 
2 2 2 2 2 2 2 2 2 
2 2 2 2 2 2 2 2 2 
2 2 2 2 2 2 2 2 2 
2 2 2 2 2 2 2 2 2 
2 2 2 2 2 2 2 2 2 
2 2 2 2 2 2 2 2 2 
2 2 2 2 2 2 2 2 2 
2 2 2 2 2 2 2 2 2 
2 2 2 2 2 2 2 2 2 
2 2 2 2 2 2 2 2 2 
2 2 2 2 2 2 2 2 2 
2 2 2 2 2 2 2 2 2 
2 2 2 2 2 2 2 2 2 
2 2 2 2 2 2 2 2 2 
2 2 2 2 2 2 2 2 2 
2 2 2 2 2 2 2 2 2 
2 2 2 2 2 2 2 2 2 
2 2 2 2 2 2 2 2 2 
2 2 2 2 2 2 2 2 2 
2 2 2 2 2 2 2 2 2 
2 2 2 2 2 2 2 2 2 
2 2 2 2 2 2 2 2 2 
2 2 2 2 2 2 2 2 2 
2 2 2 2 2 2 2 2 2 
2 2 2 2 2 2 2 2 2 
2 2 2 2 2 2 2 2 2 
2 2 2 2 2 2 2 2 2 
2 2 2 2 2 2 2 2 2 
2 2 2 2 2 2 2 2 2 
2 2 2 2 2 2 2 2 2 
2 2 2 2 2 2 2 2 2 
2 2 2 2 2 2 2 2 2 
2 2 2 2 2 2 2 2 2 
2 2 2 2 2 2 2 2 2 
2 2 2 2 2 2 2 2 2 
2 2 2 2 2 2 2 2 2 
2 2 2 2 2 2 2 2 2 
2 2 2 2 2 2 2 2 2 
2 2 2 2 2 2 2 2 2 
2 2 2 2 2 2 2 2 2 
2 2 2 2 2 2 2 2 2 
2 2 2 2 2 2 2 2 2 
2 2 2 2 2 2 2 2 2 
2 2 2 2 2 2 2 2 2 
2 2 2 2 2 2 2 2 2 
2 2 2 2 2 2 2 2 2 
2 2 2 2 2 2 2 2 2 
2 2 2 2 2 2 2 2 2 
2 2 2 2 2 2 2 2 2 
2 2 2 2 2 2 2 2 2 
2 2 2 2 2 2 2 2 2 
2 2 2 2 2 2 2 2 2 
2 2 2 2 2 2 2 2 2 
2 2 2 2 2 2 2 2 2 
2 2 2 2 2 2 2 2 2 
2 2 2 2 2 2 2 2 2 
2 2 2 2 2 2 2 2 2 
2 2 2 2 2 2 2 2 2 
2 2 2 2 2 2 2 2 2 
2 2 2 2 2 2 2 2 2 
2 2 2 2 2 2 2 2 2 
2 2 2 2 2 2 2 2 2 
2 2 2 2 2 2 2 2 2 
2 2 2 2 2 2 2 2 2 
2 2 2 2 2 2 2 2 2 
2 2 2 2 2 2 2 2 2 
2 2 2 2 2 2 2 2 2 
2 2 2 2 2 2 2 2 2 
2 2 2 2 2 2 2 2 2 
2 2 2 2 2 2 2 2 2 
2 2 2 2 2 2 2 2 2 
2 2 2 2 2 2 2 2 2 
2 2 2 2 2 2 2 2 2 
2 2 2 2 2 2 2 2 2 
2 2 2 2 2 2 2 2 2 
2 2 2 2 2 2 2 2 2 
2 2 2 2 2 2 2 2 2 
2 2 2 2 2 2 2 2 2 
2 2 2 2 2 2 2 2 2 
2 2 2 2 2 2 2 2 2 
2 2 2 2 2 2 2 2 2 
2 2 2 2 2 2 2 2 2 
2 2 2 2 2 2 2 2 2 
2 2 2 2 2 2 2 2 2 
2 2 2 2 2 2 2 2 2 
2 2 2 2 2 2 2 2 2 
2 2 2 2 2 2 2 2 2 
2 2 2 2 2 2 2 2 2 
2 2 2 2 2 2 
i 3 1149 int
0 0 0 0 0 0 0 0 0 
0 0 0 0 0 0 0 0 0 
0 0 0 0 0 0 0 0 0 
0 0 0 0 0 0 0 0 0 
0 0 0 0 0 0 0 0 0 
0 0 0 0 0 0 0 0 0 
0 0 0 0 0 0 0 0 0 
0 0 0 0 0 0 0 0 0 
0 0 0 0 0 0 0 0 0 
0 0 0 0 0 0 0 0 0 
0 0 0 0 0 0 0 0 0 
0 0 0 0 0 0 0 0 0 
0 0 0 0 0 0 0 0 0 
0 0 0 0 0 0 0 0 0 
0 0 0 0 0 0 0 0 0 
0 0 0 0 0 0 0 0 0 
0 0 0 0 0 0 0 0 0 
0 0 0 0 0 0 0 0 0 
0 0 0 0 0 0 0 0 0 
0 0 0 0 0 0 0 0 0 
0 0 0 0 0 0 0 0 0 
0 0 0 0 0 0 0 0 0 
0 0 0 0 0 0 0 0 0 
0 0 0 0 0 0 0 0 0 
0 0 0 0 0 0 0 0 0 
0 0 0 0 0 0 0 0 0 
0 0 0 0 0 0 0 0 0 
0 0 0 0 0 0 0 0 0 
0 0 0 0 0 0 0 0 0 
0 0 0 0 0 0 0 0 0 
0 0 0 0 0 0 0 0 0 
0 0 0 0 0 0 0 0 0 
0 0 0 0 0 0 0 0 0 
0 0 0 0 0 0 0 0 0 
0 0 0 0 0 0 0 0 0 
0 0 0 0 0 0 0 0 0 
0 0 0 0 0 0 0 0 0 
0 0 0 0 0 0 0 0 0 
0 0 0 0 0 0 0 0 0 
0 0 0 0 0 0 0 0 0 
0 0 0 0 0 0 0 0 0 
0 0 0 0 0 0 0 0 0 
0 0 0 0 0 0 0 0 0 
0 0 0 0 0 0 0 0 0 
0 0 0 0 0 0 0 0 0 
0 0 0 0 0 0 0 0 0 
0 0 0 0 0 0 0 0 0 
0 0 0 0 0 0 0 0 0 
0 0 0 0 0 0 0 0 0 
0 0 0 0 0 0 0 0 0 
0 0 0 0 0 0 0 0 0 
0 0 0 0 0 0 0 0 0 
0 0 0 0 0 0 0 0 0 
0 0 0 0 0 0 0 0 0 
0 0 0 0 0 0 0 0 0 
0 0 0 0 0 0 0 0 0 
0 0 0 0 0 0 0 0 0 
0 0 0 0 0 0 0 0 0 
0 0 0 0 0 0 0 0 0 
0 0 0 0 0 0 0 0 0 
0 0 0 0 0 0 0 0 0 
0 0 0 0 0 0 0 0 0 
0 0 0 0 0 0 0 0 0 
0 0 0 0 0 0 0 0 0 
0 0 0 0 0 0 0 0 0 
0 0 0 0 0 0 0 0 0 
0 0 0 0 0 0 0 0 0 
0 0 0 0 0 0 0 0 0 
0 0 0 0 0 0 0 0 0 
0 0 0 0 0 0 0 0 0 
0 0 0 0 0 0 0 0 0 
0 0 0 0 0 0 0 0 0 
0 0 0 0 0 0 0 0 0 
0 0 0 0 0 0 0 0 0 
0 0 0 0 0 0 0 0 0 
0 0 0 0 0 0 0 0 0 
0 0 0 0 0 0 0 0 0 
0 0 0 0 0 0 0 0 0 
0 0 0 0 0 0 0 0 0 
0 0 0 0 0 0 0 0 0 
0 0 0 0 0 0 0 0 0 
0 0 0 0 0 0 0 0 0 
0 0 0 0 0 0 0 0 0 
0 0 0 0 0 0 0 0 0 
0 0 0 0 0 0 0 0 0 
0 0 0 0 0 0 0 0 0 
0 0 0 0 0 0 0 0 0 
0 0 0 0 0 0 0 0 0 
0 0 0 0 0 0 0 0 0 
0 0 0 0 0 0 0 0 0 
0 0 0 0 0 0 0 0 0 
0 0 0 0 0 0 0 0 0 
0 0 0 0 0 0 0 0 0 
0 0 0 0 0 0 0 0 0 
0 0 0 0 0 0 0 0 0 
0 0 0 0 0 0 0 0 0 
0 0 0 0 0 0 0 0 0 
0 0 0 0 0 0 0 0 0 
0 0 0 0 0 0 0 0 0 
0 0 0 0 0 0 0 0 0 
0 0 0 0 0 0 0 0 0 
0 0 0 0 0 0 0 0 0 
0 0 0 0 0 0 0 0 0 
0 0 0 0 0 0 0 0 0 
0 0 0 0 0 0 0 0 0 
0 0 0 0 0 0 0 0 0 
0 0 0 0 0 0 0 0 0 
0 0 0 0 0 0 0 0 0 
0 0 0 0 0 0 0 0 0 
0 0 0 0 0 0 0 0 0 
0 0 0 0 0 0 0 0 0 
0 0 0 0 0 0 0 0 0 
0 0 0 0 0 0 0 0 0 
0 0 0 0 0 0 0 0 0 
0 0 0 0 0 0 0 0 0 
0 0 0 0 0 0 0 0 0 
0 0 0 0 0 0 0 0 0 
0 0 0 0 0 0 0 0 0 
0 0 0 0 0 0 0 0 0 
0 0 0 0 0 0 0 0 0 
0 0 0 0 0 0 0 0 0 
0 0 0 0 0 0 0 0 0 
0 0 0 0 0 0 0 0 0 
0 0 0 0 0 0 0 0 0 
0 0 0 0 0 0 0 0 0 
0 0 0 0 0 0 0 0 0 
0 0 0 0 0 0 0 0 0 
0 0 0 0 0 0 0 0 0 
0 0 0 0 0 0 0 0 0 
0 0 0 0 0 0 0 0 0 
0 0 0 0 0 0 0 0 0 
0 0 0 0 0 0 0 0 0 
0 0 0 0 0 0 0 0 0 
0 0 0 0 0 0 0 0 0 
0 0 0 0 0 0 0 0 0 
0 0 0 0 0 0 0 0 0 
0 0 0 0 0 0 0 0 0 
0 0 0 0 0 0 0 0 0 
0 0 0 0 0 0 0 0 0 
0 0 0 0 0 0 0 0 0 
0 0 0 0 0 0 0 0 0 
0 0 0 0 0 0 0 0 0 
0 0 0 0 0 0 0 0 0 
0 0 0 0 0 0 0 0 0 
0 0 0 0 0 0 0 0 0 
0 0 0 0 0 0 0 0 0 
0 0 0 0 0 0 0 0 0 
0 0 0 0 0 0 0 0 0 
0 0 0 0 0 0 0 0 0 
0 0 0 0 0 0 0 0 0 
0 0 0 0 0 0 0 0 0 
0 0 0 0 0 0 0 0 0 
0 0 0 0 0 0 0 0 0 
0 0 0 0 0 0 0 0 0 
0 0 0 0 0 0 0 0 0 
0 0 0 0 0 0 0 0 0 
0 0 0 0 0 0 0 0 0 
0 0 0 0 0 0 0 0 0 
0 0 0 0 0 0 0 0 0 
0 0 0 0 0 0 0 0 0 
0 0 0 0 0 0 0 0 0 
0 0 0 0 0 0 0 0 0 
0 0 0 0 0 0 0 0 0 
0 0 0 0 0 0 0 0 0 
0 0 0 0 0 0 0 0 0 
0 0 0 0 0 0 0 0 0 
0 0 0 0 0 0 0 0 0 
0 0 0 0 0 0 0 0 0 
0 0 0 0 0 0 0 0 0 
0 0 0 0 0 0 0 0 0 
0 0 0 0 0 0 0 0 0 
0 0 0 0 0 0 0 0 0 
0 0 0 0 0 0 0 0 0 
0 0 0 0 0 0 0 0 0 
0 0 0 0 0 0 0 0 0 
0 0 0 0 0 0 0 0 0 
0 0 0 0 0 0 0 0 0 
0 0 0 0 0 0 0 0 0 
0 0 0 0 0 0 0 0 0 
0 0 0 0 0 0 0 0 0 
0 0 0 0 0 0 0 0 0 
0 0 0 0 0 0 0 0 0 
0 0 0 0 0 0 0 0 0 
0 0 0 0 0 0 0 0 0 
0 0 0 0 0 0 0 0 0 
0 0 0 0 0 0 0 0 0 
0 0 0 0 0 0 0 0 0 
0 0 0 0 0 0 0 0 0 
0 0 0 0 0 0 0 0 0 
0 0 0 0 0 0 0 0 0 
0 0 0 0 0 0 0 0 0 
0 0 0 0 0 0 0 0 0 
0 0 0 0 0 0 0 0 0 
0 0 0 0 0 0 0 0 0 
0 0 0 0 0 0 0 0 0 
0 0 0 0 0 0 0 0 0 
0 0 0 0 0 0 0 0 0 
0 0 0 0 0 0 0 0 0 
0 0 0 0 0 0 0 0 0 
0 0 0 0 0 0 0 0 0 
0 0 0 0 0 0 0 0 0 
0 0 0 0 0 0 0 0 0 
0 0 0 0 0 0 0 0 0 
0 0 0 0 0 0 0 0 0 
0 0 0 0 0 0 0 0 0 
0 0 0 0 0 0 0 0 0 
0 0 0 0 0 0 0 0 0 
0 0 0 0 0 0 0 0 0 
0 0 0 0 0 0 0 0 0 
0 0 0 0 0 0 0 0 0 
0 0 0 0 0 0 0 0 0 
0 0 0 0 0 0 0 0 0 
0 0 0 0 0 0 0 0 0 
0 0 0 0 0 0 0 0 0 
0 0 0 0 0 0 0 0 0 
0 0 0 0 0 0 0 0 0 
0 0 0 0 0 0 0 0 0 
0 0 0 0 0 0 0 0 0 
0 0 0 0 0 0 0 0 0 
0 0 0 0 0 0 0 0 0 
0 0 0 0 0 0 0 0 0 
0 0 0 0 0 0 0 0 0 
0 0 0 0 0 0 0 0 0 
0 0 0 0 0 0 0 0 0 
0 0 0 0 0 0 0 0 0 
0 0 0 0 0 0 0 0 0 
0 0 0 0 0 0 0 0 0 
0 0 0 0 0 0 0 0 0 
0 0 0 0 0 0 0 0 0 
0 0 0 0 0 0 0 0 0 
0 0 0 0 0 0 0 0 0 
0 0 0 0 0 0 0 0 0 
0 0 0 0 0 0 0 0 0 
0 0 0 0 0 0 0 0 0 
0 0 0 0 0 0 0 0 0 
0 0 0 0 0 0 0 0 0 
0 0 0 0 0 0 0 0 0 
0 0 0 0 0 0 0 0 0 
0 0 0 0 0 0 0 0 0 
0 0 0 0 0 0 0 0 0 
0 0 0 0 0 0 0 0 0 
0 0 0 0 0 0 0 0 0 
0 0 0 0 0 0 0 0 0 
0 0 0 0 0 0 0 0 0 
0 0 0 0 0 0 0 0 0 
0 0 0 0 0 0 0 0 0 
0 0 0 0 0 0 0 0 0 
0 0 0 0 0 0 0 0 0 
0 0 0 0 0 0 0 0 0 
0 0 0 0 0 0 0 0 0 
0 0 0 0 0 0 0 0 0 
0 0 0 0 0 0 0 0 0 
0 0 0 0 0 0 0 0 0 
0 0 0 0 0 0 0 0 0 
0 0 0 0 0 0 0 0 0 
0 0 0 0 0 0 0 0 0 
0 0 0 0 0 0 0 0 0 
0 0 0 0 0 0 0 0 0 
0 0 0 0 0 0 0 0 0 
0 0 0 0 0 0 0 0 0 
0 0 0 0 0 0 0 0 0 
0 0 0 0 0 0 0 0 0 
0 0 0 0 0 0 0 0 0 
0 0 0 0 0 0 0 0 0 
0 0 0 0 0 0 0 0 0 
0 0 0 0 0 0 0 0 0 
0 0 0 0 0 0 0 0 0 
0 0 0 0 0 0 0 0 0 
0 0 0 0 0 0 0 0 0 
0 0 0 0 0 0 0 0 0 
0 0 0 0 0 0 0 0 0 
0 0 0 0 0 0 0 0 0 
0 0 0 0 0 0 0 0 0 
0 0 0 0 0 0 0 0 0 
0 0 0 0 0 0 0 0 0 
0 0 0 0 0 0 0 0 0 
0 0 0 0 0 0 0 0 0 
0 0 0 0 0 0 0 0 0 
0 0 0 0 0 0 0 0 0 
0 0 0 0 0 0 0 0 0 
0 0 0 0 0 0 0 0 0 
0 0 0 0 0 0 0 0 0 
0 0 0 0 0 0 0 0 0 
0 0 0 0 0 0 0 0 0 
0 0 0 0 0 0 0 0 0 
0 0 0 0 0 0 0 0 0 
0 0 0 0 0 0 0 0 0 
0 0 0 0 0 0 0 0 0 
0 0 0 0 0 0 0 0 0 
0 0 0 0 0 0 0 0 0 
0 0 0 0 0 0 0 0 0 
0 0 0 0 0 0 0 0 0 
0 0 0 0 0 0 0 0 0 
0 0 0 0 0 0 0 0 0 
0 0 0 0 0 0 0 0 0 
0 0 0 0 0 0 0 0 0 
0 0 0 0 0 0 0 0 0 
0 0 0 0 0 0 0 0 0 
0 0 0 0 0 0 0 0 0 
0 0 0 0 0 0 0 0 0 
0 0 0 0 0 0 0 0 0 
0 0 0 0 0 0 0 0 0 
0 0 0 0 0 0 0 0 0 
0 0 0 0 0 0 0 0 0 
0 0 0 0 0 0 0 0 0 
0 0 0 0 0 0 0 0 0 
0 0 0 0 0 0 0 0 0 
0 0 0 0 0 0 0 0 0 
0 0 0 0 0 0 0 0 0 
0 0 0 0 0 0 0 0 0 
0 0 0 0 0 0 0 0 0 
0 0 0 0 0 0 0 0 0 
0 0 0 0 0 0 0 0 0 
0 0 0 0 0 0 0 0 0 
0 0 0 0 0 0 0 0 0 
0 0 0 0 0 0 0 0 0 
0 0 0 0 0 0 0 0 0 
0 0 0 0 0 0 0 0 0 
0 0 0 0 0 0 0 0 0 
0 0 0 0 0 0 0 0 0 
0 0 0 0 0 0 0 0 0 
0 0 0 0 0 0 0 0 0 
0 0 0 0 0 0 0 0 0 
0 0 0 0 0 0 0 0 0 
0 0 0 0 0 0 0 0 0 
0 0 0 0 0 0 0 0 0 
0 0 0 0 0 0 0 0 0 
0 0 0 0 0 0 0 0 0 
0 0 0 0 0 0 0 0 0 
0 0 0 0 0 0 0 0 0 
0 0 0 0 0 0 0 0 0 
0 0 0 0 0 0 0 0 0 
0 0 0 0 0 0 0 0 0 
0 0 0 0 0 0 0 0 0 
0 0 0 0 0 0 0 0 0 
0 0 0 0 0 0 0 0 0 
0 0 0 0 0 0 0 0 0 
0 0 0 0 0 0 0 0 0 
0 0 0 0 0 0 0 0 0 
0 0 0 0 0 0 0 0 0 
0 0 0 0 0 0 0 0 0 
0 0 0 0 0 0 0 0 0 
0 0 0 0 0 0 0 0 0 
0 0 0 0 0 0 0 0 0 
0 0 0 0 0 0 0 0 0 
0 0 0 0 0 0 0 0 0 
0 0 0 0 0 0 0 0 0 
0 0 0 0 0 0 0 0 0 
0 0 0 0 0 0 0 0 0 
0 0 0 0 0 0 0 0 0 
0 0 0 0 0 0 0 0 0 
0 0 0 0 0 0 0 0 0 
0 0 0 0 0 0 0 0 0 
0 0 0 0 0 0 0 0 0 
0 0 0 0 0 0 0 0 0 
0 0 0 0 0 0 0 0 0 
0 0 0 0 0 0 0 0 0 
0 0 0 0 0 0 0 0 0 
0 0 0 0 0 0 0 0 0 
0 0 0 0 0 0 0 0 0 
0 0 0 0 0 0 0 0 0 
0 0 0 0 0 0 0 0 0 
0 0 0 0 0 0 0 0 0 
0 0 0 0 0 0 0 0 0 
0 0 0 0 0 0 0 0 0 
0 0 0 0 0 0 0 0 0 
0 0 0 0 0 0 0 0 0 
0 0 0 0 0 0 0 0 0 
0 0 0 0 0 0 0 0 0 
0 0 0 0 0 0 0 0 0 
0 0 0 0 0 0 0 0 0 
0 0 0 0 0 0 0 0 0 
0 0 0 0 0 0 0 0 0 
0 0 0 0 0 0 0 0 0 
0 0 0 0 0 0 0 0 0 
0 0 0 0 0 0 0 0 0 
0 0 0 0 0 0 0 0 0 
0 0 0 0 0 0 0 0 0 
0 0 0 0 0 0 0 0 0 
0 0 0 0 0 0 0 0 0 
0 0 0 0 0 0 0 0 0 
0 0 0 0 0 0 0 0 0 
0 0 0 0 0 0 0 0 0 

v 3 1149 double
0 0.38961864952 -0.011377573717 -0.088104103101 -0.0947939021 -0.046568850763 0.0045440372068 -0.9164359227 0.033712270954 
0.25068867268 0.069832193872 -0.32474301262 0 -0.98606515775 -0.013934842249 0 -1.0278696845 0 
0 -1.0278696845 -1.6177137662e-18 -0.027869684498 -0.9721303155 -0.027869684498 0.027869684498 -0.9721303155 -0.027869684498 
-0.027869684498 -1.0278696845 -0.027869684498 0.027869684498 -1.0278696845 -0.027869684498 -0.027869684498 -1.0278696845 -0.027869684498 
0.027869684498 -1.0278696845 -0.027869684498 -0.027869684498 -0.9721303155 -0.027869684498 0.027869684498 -0.9721303155 -0.027869684498 
-0.027869684498 -0.9721303155 -0.027869684498 0.027869684498 -0.9721303155 -0.027869684498 0.072490421915 -0.10439644854 0.12204562543 
0.2816177857 -0.070956440347 0.35699234729 -0.048618844538 0.073956558553 0.18020461534 0 -1.0278696845 0 
0 -1 0 0 -1 0 0 -1 0 
0 -1 0 0.027869684498 -0.9721303155 0.027869684498 0.0087990749437 -1.0014506336 0.0048725250637 
0.027869684498 -0.9721303155 0.027869684498 -0.027869684498 -0.9721303155 0.027869684498 0.027869684498 -0.9721303155 0.027869684498 
-0.027869684498 -1.0278696845 0.027869684498 0.027869684498 -1.0278696845 0.027869684498 -0.027869684498 -1.0278696845 0.027869684498 
0.027869684498 -1.0278696845 0.027869684498 -0.027869684498 -0.9721303155 0.027869684498 0.027869684498 -0.9721303155 0.027869684498 
-0.027869684498 -0.9721303155 0.027869684498 0.027869684498 -0.9721303155 0.027869684498 -0.0081852093254 -1.0485384844 -0.020696062147 
0 -1.0278696845 0 -0.027869684498 -0.9721303155 0.027869684498 0.027869684498 -1.0278696845 0.027869684498 
-0.027869684498 -1.0278696845 -0.027869684498 0.027869684498 -1.0278696845 -0.027869684498 -0.027869684498 -1.0278696845 -0.027869684498 
0.027869684498 -1.0278696845 -0.027869684498 -0.027869684498 -0.9721303155 -0.027869684498 0.027869684498 -0.9721303155 -0.027869684498 
-0.027869684498 -0.9721303155 -0.027869684498 0.027869684498 -0.9721303155 -0.027869684498 -0.027869684498 -1.0278696845 -0.027869684498 
0.027869684498 -1.0278696845 -0.027869684498 -0.027869684498 -0.9721303155 -0.027869684498 0.027869684498 -0.9721303155 -0.027869684498 
0.16529257913 -0.85128247393 -6.7356971971e-19 0.033712270956 -0.93134873057 0.0033288181619 0.009969939019 -0.95785502302 0.042185695564 
0 -0.9721303155 0 0.00093621115373 -0.99815222434 -0.0035875512483 0 -0.9721303155 0 
-0.027869684498 -1.0278696845 0.027869684498 0.027869684498 -1.0278696845 0.027869684498 -0.027869684498 -1.0278696845 0.027869684498 
0.027869684498 -1.0278696845 0.027869684498 -0.027869684498 -0.9721303155 0.027869684498 0.027869684498 -0.9721303155 0.027869684498 
-0.027869684498 -1.0278696845 -0.027869684498 0.027869684498 -1.0278696845 -0.027869684498 -0.027869684498 -0.9721303155 0.027869684498 
0.027869684498 -0.9721303155 0.027869684498 -0.027869684498 -0.9721303155 -0.027869684498 0.027869684498 -0.9721303155 -0.027869684498 
-0.027869684498 -1.0278696845 0.027869684498 0.027869684498 -1.0278696845 0.027869684498 -0.027869684498 -0.9721303155 0.027869684498 
0.027869684498 -0.9721303155 0.027869684498 -0.00087894725669 -1.0283633966 -0.0046283477975 0.033712273624 -0.93812242275 -0.0067661620668 
0 -1 -8.088568831e-19 0 -0.9721303155 -0.013934842249 0 -1 -8.088568831e-19 
0 -0.9721303155 0 0 -1 0 -0.027869684498 -1.0278696845 -0.027869684498 
0.027869684498 -1.0278696845 -0.027869684498 -0.027869684498 -0.9721303155 -0.027869684498 0.027869684498 -0.9721303155 -0.027869684498 
-0.027869684498 -1.0278696845 0.027869684498 0.027869684498 -1.0278696845 0.027869684498 -0.027869684498 -0.9721303155 0.027869684498 
0.027869684498 -0.9721303155 0.027869684498 -0.027869684498 -1.0278696845 -0.027869684498 0.027869684498 -1.0278696845 -0.027869684498 
-0.027869684498 -1.0278696845 -0.027869684498 0.027869684498 -1.0278696845 -0.027869684498 -0.027869684498 -0.9721303155 -0.027869684498 
0.027869684498 -0.9721303155 -0.027869684498 -0.027869684498 -0.9721303155 -0.027869684498 0.027869684498 -0.9721303155 -0.027869684498 
0 0.40003533198 0 0 -1 0 0.001953639576 -1.0246282323 0.0052755733345 
-0.027869684498 -1.0278696845 0.027869684498 0.027869684498 -1.0278696845 0.027869684498 -0.027869684498 -0.9721303155 0.027869684498 