# vtk DataFile Version 5.1
Generated by LIGGGHTS
ASCII
DATASET POLYDATA
POINTS 1352 float
-0.134861 0.0555636 -0.14323 -0.137791 0.0693828 -0.142679 -0.140433 0.149826 -0.144395 
-0.143327 0.0611545 -0.140906 -0.0240709 0.0835634 -0.13553 -0.123083 0.0950095 -0.142319 
-0.0241048 0.122388 -0.138253 -0.105977 0.152765 -0.140141 -0.0703309 0.154827 -0.13986 
-0.00258329 0.16564 -0.139596 -0.132611 0.0576314 -0.127718 -0.120185 0.0603692 -0.133807 
-0.0840884 0.0626909 -0.130729 -0.130673 0.0802921 -0.133632 -0.012774 0.084977 -0.132552 
-0.104387 0.103171 -0.13226 -0.14371 0.16771 -0.134141 -0.120643 0.0577638 -0.121132 
-0.00317103 0.0652873 -0.127114 -0.0369665 0.0832748 -0.126506 -0.0296213 0.106944 -0.122563 
-0.0230178 0.153201 -0.123829 -0.129659 0.0629155 -0.119223 -0.136314 0.0791427 -0.117649 
-0.0411467 0.0896449 -0.113215 -0.144862 0.09272 -0.112518 -0.0328902 0.102263 -0.113276 
-0.0539721 0.135407 -0.119251 -0.0871544 0.152852 -0.114393 -0.0720775 0.14781 -0.113154 
-0.144698 0.0606705 -0.108694 -0.0789077 0.071268 -0.111712 -0.0558709 0.0924341 -0.11015 
-0.132156 0.102937 -0.111516 -0.0601898 0.17195 -0.112197 -0.103387 0.0641012 -0.10378 
-0.0305221 0.0634899 -0.0948461 -0.139164 0.0734703 -0.0934234 -0.0312385 0.117884 -0.0914983 
-0.144177 0.0638171 -0.0848219 -0.0581776 0.0885142 -0.0838027 -0.0279965 0.150357 -0.0837615 
-0.0375019 0.0608299 -0.076492 -0.107882 0.0723007 -0.0755893 -0.103635 0.0984842 -0.0825345 
-0.0749157 0.182963 -0.0783398 -0.0172231 0.0597927 -0.0754173 -0.000111801 0.0553323 -0.067778 
-0.129022 0.126674 -0.0728012 -0.0426454 0.108921 -0.0606414 -0.098171 0.13111 -0.0653462 
-0.0333328 0.148895 -0.059961 -0.0788389 0.0647466 -0.0594974 -0.0029966 0.0845092 -0.0592516 
-0.0684579 0.0629173 -0.04272 -0.0341385 0.0717967 -0.041198 -0.0129931 0.0829927 -0.0390894 
-0.131223 0.113856 -0.0453764 -0.0307327 0.15013 -0.0393175 -0.124595 0.0805384 -0.034905 
-0.0350095 0.163225 -0.0323409 -0.0590929 0.084695 -0.0242968 -0.0202102 0.105102 -0.0235581 
-0.137328 0.0565447 -0.0154481 -0.126372 0.0578171 -0.0160794 -0.101796 0.0624539 -0.0202502 
-0.00618778 0.0900216 -0.0190619 -0.131121 0.169785 -0.0202345 -0.0349808 0.0672829 -0.0126093 
-0.104661 0.0881256 -0.0123624 -0.0580334 0.167207 -0.0101887 -0.135517 0.0682913 -0.00495177 
-0.0914479 0.0627399 -0.006241 -0.131483 0.0884167 -0.00606731 -0.0183623 0.0559371 0.00597563 
-0.140042 0.0644927 0.00522065 -0.0349188 0.0743877 0.00271578 -0.00742701 0.0805046 0.000982052 
-0.0702111 0.113306 0.00739619 -0.0312592 0.0558302 0.0087508 -0.0145323 0.071412 0.0119348 
-0.124581 0.0903987 0.00789089 -0.00860881 0.0861748 0.0128955 -0.0434446 0.106889 0.00796479 
-0.115368 0.0688777 0.0190022 -0.144247 0.0747316 0.0192453 -0.123393 0.0800497 0.0176168 
-0.0131491 0.0999554 0.0222376 -0.110043 0.0562598 0.0268348 -0.131978 0.0701123 0.0271739 
-0.131435 0.0992223 0.0260138 -0.120857 0.0893739 0.0358524 -0.104079 0.09733 0.0319039 
-0.105954 0.174205 0.030818 -0.142329 0.083204 0.0454669 -0.0486131 0.079497 0.0502362 
-0.0162117 0.0823728 0.0467043 -0.0945988 0.0926709 0.0494406 -0.00762142 0.086268 0.0508817 
-0.119308 0.117115 0.0527473 -0.00897183 0.137124 0.0510211 -0.140413 0.157058 0.0520029 
-0.0555419 0.0555588 0.0588927 -0.0773574 0.0773467 0.0534902 -0.0276631 0.0620735 0.0614781 
-0.0744378 0.146451 0.065232 -0.098341 0.15421 0.0667652 -0.0600172 0.187106 0.0619903 
-0.121305 0.0790842 0.074046 -0.1356 0.146664 0.0713543 -0.143223 0.060635 0.0764037 
-0.104309 0.15558 0.0799728 -0.0797497 0.197476 0.0796758 -0.0190067 0.0661183 0.0880665 
-0.0805412 0.0929862 0.0842968 -0.0804925 0.0595445 0.0955449 -0.0461648 0.0714613 0.0969548 
-0.140095 0.0789214 0.0960414 -0.0235097 0.130164 0.0938405 -0.0469596 0.199771 0.0958649 
-0.0423695 0.199759 0.0957177 -0.109138 0.0691696 0.0999486 -0.0311202 0.16698 0.0990017 
-0.0468265 0.199855 0.100455 -0.0422364 0.199843 0.100308 -0.118253 0.0769697 0.109821 
-0.106363 0.101875 0.11487 -0.0486054 0.0771035 0.12231 -0.110945 0.185077 0.12277 
-0.118311 0.113449 0.133833 -0.128529 0.117777 0.128529 -0.109659 0.126609 0.134786 
-0.131405 0.0618886 0.142012 -0.00396676 0.100991 0.139108 -0.0826019 0.073836 0.142676 
-0.0895276 0.217052 -0.142806 -0.0781221 0.216162 -0.143508 -0.0917127 0.226132 -0.14487 
-0.0770407 0.227826 -0.145646 -0.0564851 0.242806 -0.147305 -0.0396253 0.24283 -0.147304 
-0.0926359 0.278722 -0.146743 -0.0780407 0.27834 -0.146849 -0.0565038 0.30145 -0.147033 
-0.0396471 0.301457 -0.147032 -0.139367 0.307563 -0.143599 -0.115305 0.307563 -0.143599 
-0.139367 0.394705 -0.143599 -0.115305 0.394705 -0.143599 -0.128373 0.395735 -0.146259 
-0.096951 0.395717 -0.146391 -0.0792257 0.26348 -0.141066 -0.0921428 0.264715 -0.142051 
-0.0565412 0.243592 -0.131028 -0.0395481 0.243602 -0.13103 -0.0565601 0.302813 -0.131713 
-0.0395672 0.302823 -0.131714 -0.124046 0.360717 -0.134347 -0.0625779 0.23877 -0.126349 
-0.0451544 0.237214 -0.124297 -0.0610974 0.299754 -0.124894 -0.0436739 0.298198 -0.122841 
-0.100507 0.345395 -0.122968 -0.0975141 0.248355 -0.117111 -0.0766439 0.248476 -0.117111 
-0.139367 0.307563 -0.119536 -0.115305 0.307563 -0.119536 -0.0510209 0.317015 -0.116419 
-0.024364 0.317015 -0.116419 -0.0976894 0.318681 -0.116953 -0.0768191 0.318802 -0.116954 
-0.139367 0.394705 -0.119536 -0.128137 0.394252 -0.11754 -0.0970212 0.39425 -0.117509 
-0.0497705 0.390792 -0.115169 -0.0256144 0.390792 -0.115169 -0.0646495 0.237251 -0.108926 
-0.0472261 0.235695 -0.106873 -0.0599107 0.294073 -0.107236 -0.0470943 0.347865 -0.106165 
-0.109666 0.379731 -0.108434 -0.0802627 0.296448 -0.0981767 -0.0610543 0.30061 -0.0983966 
-0.0457456 0.296679 -0.105418 -0.100704 0.320331 -0.101349 -0.0721608 0.319485 -0.101304 
-0.0364254 0.329765 -0.100582 -0.117957 0.345634 -0.104724 -0.100623 0.345318 -0.104725 
-0.080263 0.377006 -0.0981732 -0.0982029 0.392702 -0.100867 -0.0742847 0.392702 -0.100867 
-0.112499 0.212466 -0.0919898 -0.126705 0.245827 -0.095068 -0.115875 0.249153 -0.0964127 
-0.097514 0.248246 -0.0962411 -0.0766439 0.248367 -0.096241 -0.0960585 0.314534 -0.096472 
-0.0780725 0.315501 -0.0965169 -0.0538657 0.313376 -0.0927349 -0.0497213 0.317719 -0.0903153 
-0.0956504 0.355583 -0.0963815 -0.076379 0.358906 -0.0925753 -0.0627728 0.381415 -0.0971871 
-0.0393291 0.381415 -0.0971871 -0.0777394 0.392967 -0.0921732 -0.0497705 0.390792 -0.0910124 
-0.0256144 0.390792 -0.0910124 -0.124667 0.212947 -0.0822782 -0.123329 0.209139 -0.0906451 
-0.11929 0.212589 -0.0822153 -0.0315327 0.232685 -0.0851556 -0.0160616 0.232705 -0.0852193 
-0.125587 0.249235 -0.0842377 -0.11476 0.253301 -0.0855864 -0.0315634 0.285577 -0.0841801 
-0.0160921 0.285598 -0.0842437 -0.0962155 0.296031 -0.0840894 -0.024364 0.317015 -0.089762 
-0.129847 0.32718 -0.0851819 -0.101195 0.32719 -0.0855674 -0.0962155 0.377412 -0.0840894 
-0.0735494 0.377412 -0.0840894 -0.127255 0.383468 -0.0826857 -0.103702 0.383432 -0.0830218 
-0.0690787 0.397239 -0.0842682 -0.124838 0.201795 -0.0817697 -0.125437 0.208423 -0.078232 
-0.124871 0.20253 -0.0763933 -0.119461 0.201438 -0.0817067 -0.119493 0.202173 -0.0763304 
-0.122243 0.216283 -0.0789423 -0.118669 0.212165 -0.077031 -0.111377 0.215135 -0.0811554 
-0.0827401 0.296782 -0.0779062 -0.0710865 0.295695 -0.0818932 -0.0578109 0.296446 -0.0756956 
-0.0990734 0.316293 -0.0760783 -0.0734141 0.316293 -0.0760783 -0.0492139 0.340631 -0.0806677 
-0.0282669 0.333946 -0.0821046 -0.0578112 0.377004 -0.0756921 -0.0264901 0.380461 -0.0782476 
-0.00361239 0.38054 -0.0780624 -0.0982029 0.392702 -0.0769488 -0.0742847 0.392702 -0.0769488 
-0.104274 0.215076 -0.0713112 -0.09319 0.214239 -0.0704182 -0.0314458 0.231846 -0.0696854 
-0.0159745 0.231866 -0.0697492 -0.103307 0.253149 -0.0714007 -0.0922226 0.252313 -0.0705077 
-0.0314764 0.284738 -0.0687098 -0.0160053 0.284759 -0.0687737 -0.0364254 0.329787 -0.071329 
-0.0632518 0.335438 -0.0725357 -0.0627763 0.381405 -0.0737416 -0.0393257 0.381405 -0.0737416 
-0.0776495 0.392849 -0.0677902 -0.0532989 0.392821 -0.0678638 -0.105353 0.215166 -0.0602265 
-0.104386 0.253239 -0.0603159 -0.0962155 0.296031 -0.0614233 -0.0735494 0.296031 -0.0614233 
-0.0961123 0.31647 -0.0648058 -0.0785466 0.314276 -0.067152 -0.0690563 0.31647 -0.0648058 
-0.0524883 0.314338 -0.0672297 -0.0232203 0.320661 -0.0622459 -0.0678875 0.338197 -0.0644393 
-0.0380378 0.338197 -0.0644393 -0.0962155 0.377412 -0.0614233 -0.0735494 0.377412 -0.0614233 
-0.0642778 0.377126 -0.0608295 -0.0416475 0.377126 -0.0608295 -0.0948002 0.39035 -0.063292 
-0.0703685 0.39035 -0.063292 -0.0244018 0.385433 -0.0664371 -0.000549885 0.38537 -0.06631 
-0.094269 0.214329 -0.0593335 -0.0933016 0.252403 -0.059423 -0.129461 0.327204 -0.0565294 
-0.100809 0.327214 -0.0569151 -0.0284557 0.334118 -0.0532526 -0.00300838 0.337165 -0.059682 
-0.0266331 0.380383 -0.0553611 -0.00372355 0.380457 -0.0551853 -0.126939 0.383479 -0.0591723 
-0.103391 0.383421 -0.059437 -0.10014 0.208452 -0.0498864 -0.0895518 0.209241 -0.0491937 
-0.100905 0.244147 -0.050625 -0.0903164 0.244937 -0.0499323 -0.0490485 0.273692 -0.0483927 
-0.0472259 0.346452 -0.046357 -0.100845 0.209218 -0.0392979 -0.0902566 0.210009 -0.0386052 
-0.10161 0.244914 -0.0400366 -0.0910209 0.245703 -0.0393437 -0.0658586 0.29856 -0.042194 
-0.0419952 0.298835 -0.0421466 -0.11628 0.302242 -0.0446314 -0.092417 0.302242 -0.0446314 
-0.0961123 0.316497 -0.0377487 -0.0690563 0.316497 -0.0377487 -0.140811 0.318353 -0.0440199 
-0.114354 0.318353 -0.0440199 -0.0267718 0.323984 -0.0406105 -0.116435 0.38698 -0.0450731 
-0.092417 0.388561 -0.0446314 -0.0669854 0.378363 -0.0444892 -0.0433577 0.378355 -0.0446352 
-0.139565 0.390575 -0.0427727 -0.115446 0.392156 -0.042331 -0.0947787 0.390351 -0.0388791 
-0.0703899 0.390351 -0.0388791 -0.0245266 0.3854 -0.0425749 -0.000655171 0.385355 -0.0424495 
-0.0602659 0.293418 -0.0311938 -0.0374003 0.293418 -0.0311938 -0.0293946 0.328212 -0.0375775 
-0.0678875 0.338197 -0.0345895 -0.0380378 0.338197 -0.0345895 -0.0602659 0.375621 -0.0311938 
[...]
POINT_DATA 1352
FIELD FieldData 8
id 1 1352 int
3781 3801 3970 3894 3730 3749 3789 3994 3744 
3858 3023 3745 2648 2739 3985 3917 3359 2755 
3927 2901 3952 3937 3738 3785 3852 3823 3296 
3981 3180 3932 3024 3966 3685 3908 3808 3931 
3844 3586 3773 3360 3877 3244 3960 3716 3135 
3830 3961 3805 3896 3242 3939 3903 3731 3943 
3918 3714 3757 3920 3879 3727 2484 3938 3814 
3182 3885 3853 3787 3815 3975 3831 3873 3971 
3746 3297 3919 3925 3786 3820 2961 3962 3847 
3906 3782 3954 3720 3688 2902 2482 3836 3982 
3825 3803 3950 3988 3854 3788 3940 3775 3587 
3955 3719 3909 3406 3911 3747 3996 3686 3765 
3631 3910 3760 2823 3761 3871 3968 3768 2550 
3864 3325 5082 5086 3863 2509 5083 5087 3721 
3941 3136 3632 3875 3776 3956 3689 3969 3729 
4866 4870 4867 4871 4794 4798 4869 4865 4796 
4800 4442 4446 4444 4448 4018 4022 4872 4868 
4795 4799 4797 4793 4020 4786 4790 4788 4792 
4024 4690 4694 4443 4447 4226 4230 4692 4696 
4445 4019 4023 4228 4232 4787 4791 4789 4042 
4441 4602 4606 4785 4330 4334 4046 4021 4017 
4604 4332 4336 4926 4924 4928 4691 4695 4693 
4689 4286 4227 4605 4608 4044 4048 4284 4229 
4225 5052 4922 5056 4850 4854 4925 4921 4852 
4856 4594 4231 4084 4088 4596 4600 4086 4090 
4288 5050 5053 5051 5054 5055 4923 5049 4927 
4598 4603 4607 4331 4335 4043 4058 4601 4060 
4064 4333 4329 4914 4918 4851 4855 4916 4920 
4853 4849 4047 4282 4045 4041 4285 4281 4915 
4917 4595 4599 4194 4283 4198 4287 4138 4026 
4030 4597 4593 4028 4032 4196 4200 4140 4144 
4919 4913 4085 4089 4059 4063 4061 4057 4087 
4091 4938 4942 4940 4944 4658 4660 4939 4943 
4941 4937 4483 4487 4475 4479 4195 4199 4258 
4262 4139 4477 4481 4485 4474 4260 4264 4197 
4193 4141 4137 4578 4582 4092 4027 4031 4580 
4584 4029 4025 4954 4956 4659 4096 4661 4094 
4074 4955 4957 4476 4480 4259 4263 4076 4478 
4482 4095 4261 4257 4078 4579 4583 4093 4581 
4577 4080 4860 4073 4882 4075 4082 4887 4884 
4888 4362 4366 4077 4364 4368 4079 4083 4883 
4885 4346 4350 4081 4348 4352 4881 4674 4678 
4162 4166 4676 4680 4164 4168 4363 4367 4314 
4318 4012 4008 4365 4361 4316 4320 4962 4966 
4964 4968 4634 4638 4484 4488 4347 4351 4354 
4636 4270 4640 4034 4268 4486 4473 4345 4152 
4356 4963 4967 4965 4961 4675 4679 4498 4146 
4150 4163 4266 4167 4677 4673 4038 4349 4036 
4040 4148 4165 4161 4272 4730 4734 4355 4115 
4736 4119 4732 4637 4035 4004 4269 4002 4117 
4121 4068 4072 4770 4774 4639 4635 4315 4776 
4210 4214 4154 4158 4319 4772 4633 4005 4500 
4156 4160 4313 4357 4212 4216 4731 4735 4530 
4499 4534 4387 4391 4234 4238 4001 4066 4267 
4070 4271 4733 4127 4729 4071 4389 4317 4039 
4006 4536 4240 4149 4114 4393 4037 4236 4125 
4265 4159 4147 4151 4123 4145 4069 4033 4065 
4771 4775 4538 4450 4454 4586 4590 4418 4422 
4769 4116 4155 4239 4773 4120 4067 4452 4456 
4124 4532 4128 4592 4003 4007 4501 4424 4118 
4157 4122 4153 5084 5088 4531 4535 4388 4235 
4211 4215 4178 4182 4533 4529 4126 4233 4113 
4180 4184 4420 4237 4296 4213 4209 5085 5081 
4591 4559 4392 4290 4294 4338 4342 4588 4557 
4561 4394 4292 4340 4344 4539 4451 4455 4587 
4506 4510 4555 4611 4615 4419 4423 4395 4399 
4724 4541 4453 4449 4613 4589 4585 4508 4512 
4421 4417 4397 4386 5034 5038 5036 5040 4830 
4623 4738 4742 4291 4295 4179 4183 4617 4390 
4181 4177 4293 4289 5035 5039 4619 5037 5033 
4874 4878 4826 4814 4621 4722 4726 4832 4556 
4560 4339 4343 4740 4744 4610 4050 4728 4396 
4558 4562 4052 4341 4337 4831 4810 4880 4828 
4812 4816 4507 4511 4612 4616 4400 4725 4614 
4618 4509 4505 4398 4385 4875 4879 4827 4624 
4876 4739 4743 4723 4727 4829 4825 4741 4737 
4721 4553 4566 4620 4811 4877 4622 4815 4873 
4568 4564 4813 4809 4563 4567 4609 4051 4055 
4565 4554 4053 3899 3849 3161 3818 3405 3838 
3755 3945 3811 3784 3440 3876 3972 3934 3762 
3860 3778 3025 2591 2481 3900 3957 3717 3978 
3964 3856 3806 3741 2927 2989 3922 3711 3869 
3867 3723 3888 2483 3441 3737 3324 3850 3614 
3851 3819 3809 3712 3914 3766 3162 3890 2824 
3771 2751 3691 3208 3812 3758 3991 3840 3665 
2962 2690 3791 3946 2748 3770 3732 3889 3442 
3995 2749 3870 3668 3779 3764 3828 5042 5046 
3718 3777 3263 5047 3385 3774 3916 3692 3763 
3913 3999 3993 3979 3974 3923 2963 3924 3998 
3772 2790 3667 3857 2928 3947 3750 3739 3810 
3790 3715 3892 3935 3751 3443 3461 3835 3733 
3298 3861 3846 3958 3936 3833 3848 5071 5067 
3754 2753 3872 3977 3725 3930 3883 3926 3326 
2868 3798 3444 3693 3792 3843 4902 4898 4900 
4904 4714 4718 4716 4720 4903 4899 4901 4897 
4836 4840 4994 4998 4996 5000 4834 4838 4715 
4719 4626 4630 4717 4713 4628 4632 4995 4999 
4997 4993 4837 4833 4515 4519 4517 4521 4835 
4839 4402 4406 4404 4408 4972 4976 4974 4978 
4627 4631 4629 4625 4973 4977 4975 4979 4702 
4698 4523 4527 4516 4520 4704 4700 4525 4514 
4518 4522 4403 4407 4405 4401 4980 4984 4982 
4986 4426 4430 4428 4432 4981 4985 4983 4987 
4754 4758 4699 4703 4524 4528 4756 4760 4062 
4701 4697 4526 4513 5062 5058 5064 5060 4490 
4494 4370 4753 4142 4298 4492 4496 4372 4376 
5010 5014 5063 5059 5057 5061 5012 5016 4755 
4759 4762 4766 4427 4431 4202 4757 4374 4764 
4768 4302 4429 4425 4300 4304 5011 5015 4890 
5013 5009 4894 4892 4896 4491 4495 4546 4206 
4493 4489 4204 4208 4946 4891 4895 4763 4767 
4893 4889 4662 4686 4682 4550 4458 4664 4684 
4552 4548 4460 4992 4950 4988 4990 4970 4948 
4952 4761 4462 4371 4375 4143 4765 4303 4299 
4688 4464 4373 4369 4301 4297 4989 4971 4947 
4951 4991 4969 4949 4945 4666 4670 4463 4459 
4203 4207 4668 4672 4461 4457 4205 4201 4958 
4953 4960 4663 4683 4687 4646 4642 4547 4551 
4685 4657 4681 4648 4644 4545 4549 4959 4862 
4864 4645 4667 4671 4669 4665 5044 5048 4858 
5043 5045 5041 4863 4861 4857 4647 4643 4641 
4859 4886 4654 4656 5002 5006 4097 4806 5004 
5008 4802 4808 4804 4650 4652 4010 5003 5007 
5005 5001 4746 4750 4378 4382 4748 4752 4306 
4310 4380 4384 4014 4308 4312 4803 4807 4801 
4805 4651 4655 4653 4649 4358 4016 4360 4192 
5076 5074 5080 5078 4747 4751 4706 4710 4502 
4749 4745 4540 4186 4381 4708 4712 4377 5077 
5075 5073 5079 4379 4383 4190 4247 4307 4311 
4243 4103 4013 4009 4188 4309 4305 4245 4711 
4504 4709 4185 4101 4249 4353 4105 4707 4503 
4705 4011 4015 4410 4414 4187 4191 4359 4099 
4189 4412 4416 4324 4328 4246 4542 4326 4248 
4322 4244 4100 4104 4544 4102 4250 5026 4906 
4910 4908 4912 4434 4438 4497 4436 4440 4106 
5027 5031 5030 4907 4911 5028 5029 5025 5032 
4905 4909 4411 4415 4255 4130 4134 4325 4253 
4413 4242 4409 4321 5018 5022 5068 5065 5069 
5070 5072 5020 5024 4543 4218 4222 4327 4323 
4537 4433 4132 4136 4220 4224 5019 5023 4842 
4846 5021 5017 4818 4822 4435 4439 4820 4824 
4251 4170 4174 4437 4172 4176 4930 4934 4844 
4848 4466 4470 4054 4276 4056 4468 4472 4843 
4847 4932 4936 4819 4823 4274 4278 4570 4574 
4821 4817 4252 4256 4131 4135 4107 4111 4129 
4572 4576 4109 4098 4280 4133 4254 4241 4221 
4217 4931 4935 4782 4933 4929 4778 4845 4841 
4781 4784 4219 4223 4171 4175 4277 4173 4169 
4783 4779 4777 4275 4279 4571 4575 4467 4471 
4780 4108 4112 4573 4569 4273 4049 4469 4465 
4110 5066 
type 1 1352 int
2 2 2 2 2 2 2 2 2 
2 2 2 2 2 2 2 2 2 
2 2 2 2 2 2 2 2 2 
2 2 2 2 2 2 2 2 2 
2 2 2 2 2 2 2 2 2 
2 2 2 2 2 2 2 2 2 
2 2 2 2 2 2 2 2 2 
2 2 2 2 2 2 2 2 2 
2 2 2 2 2 2 2 2 2 
2 2 2 2 2 2 2 2 2 
2 2 2 2 2 2 2 2 2 
2 2 2 2 2 2 2 2 2 
2 2 2 2 2 2 2 2 2 
2 2 2 2 2 2 2 2 2 
2 2 2 2 2 2 2 2 2 
2 2 2 2 2 2 2 2 2 
2 2 2 2 2 2 2 2 2 
2 2 2 2 2 2 2 2 2 
2 2 2 2 2 2 2 2 2 
2 2 2 2 2 2 2 2 2 
2 2 2 2 2 2 2 2 2 
2 2 2 2 2 2 2 2 2 
2 2 2 2 2 2 2 2 2 
2 2 2 2 2 2 2 2 2 
2 2 2 2 2 2 2 2 2 
2 2 2 2 2 2 2 2 2 
2 2 2 2 2 2 2 2 2 
2 2 2 2 2 2 2 2 2 
2 2 2 2 2 2 2 2 2 
2 2 2 2 2 2 2 2 2 
2 2 2 2 2 2 2 2 2 
2 2 2 2 2 2 2 2 2 
2 2 2 2 2 2 2 2 2 
2 2 2 2 2 2 2 2 2 
2 2 2 2 2 2 2 2 2 
2 2 2 2 2 2 2 2 2 
2 2 2 2 2 2 2 2 2 
2 2 2 2 2 2 2 2 2 
2 2 2 2 2 2 2 2 2 
2 2 2 2 2 2 2 2 2 
2 2 2 2 2 2 2 2 2 
2 2 2 2 2 2 2 2 2 
2 2 2 2 2 2 2 2 2 
2 2 2 2 2 2 2 2 2 
2 2 2 2 2 2 2 2 2 
2 2 2 2 2 2 2 2 2 
2 2 2 2 2 2 2 2 2 
2 2 2 2 2 2 2 2 2 
2 2 2 2 2 2 2 2 2 
2 2 2 2 2 2 2 2 2 
2 2 2 2 2 2 2 2 2 
2 2 2 2 2 2 2 2 2 
2 2 2 2 2 2 2 2 2 
2 2 2 2 2 2 2 2 2 
2 2 2 2 2 2 2 2 2 
2 2 2 2 2 2 2 2 2 
2 2 2 2 2 2 2 2 2 
2 2 2 2 2 2 2 2 2 
2 2 2 2 2 2 2 2 2 
2 2 2 2 2 2 2 2 2 
2 2 2 2 2 2 2 2 2 
2 2 2 2 2 2 2 2 2 
2 2 2 2 2 2 2 2 2 
2 2 2 2 2 2 2 2 2 
2 2 2 2 2 2 2 2 2 
2 2 2 2 2 2 2 2 2 
2 2 2 2 2 2 2 2 2 
2 2 2 2 2 2 2 2 2 
2 2 2 2 2 2 2 2 2 
2 2 2 2 2 2 2 2 2 
2 2 2 2 2 2 2 2 2 
2 2 2 2 2 2 2 2 2 
2 2 2 2 2 2 2 2 2 
2 2 2 2 2 2 2 2 2 
2 2 2 2 2 2 2 2 2 
2 2 2 2 2 2 2 2 2 
2 2 2 2 2 2 2 2 2 
2 2 2 2 2 2 2 2 2 
2 2 2 2 2 2 2 2 2 
2 2 2 2 2 2 2 2 2 
2 2 2 2 2 2 2 2 2 
2 2 2 2 2 2 2 2 2 
2 2 2 2 2 2 2 2 2 
2 2 2 2 2 2 2 2 2 
2 2 2 2 2 2 2 2 2 
2 2 2 2 2 2 2 2 2 
2 2 2 2 2 2 2 2 2 
2 2 2 2 2 2 2 2 2 
2 2 2 2 2 2 2 2 2 
2 2 2 2 2 2 2 2 2 
2 2 2 2 2 2 2 2 2 
2 2 2 2 2 2 2 2 2 
2 2 2 2 2 2 2 2 2 
2 2 2 2 2 2 2 2 2 
2 2 2 2 2 2 2 2 2 
2 2 2 2 2 2 2 2 2 
2 2 2 2 2 2 2 2 2 
2 2 2 2 2 2 2 2 2 
2 2 2 2 2 2 2 2 2 
2 2 2 2 2 2 2 2 2 
2 2 2 2 2 2 2 2 2 
2 2 2 2 2 2 2 2 2 
2 2 2 2 2 2 2 2 2 
2 2 2 2 2 2 2 2 2 
2 2 2 2 2 2 2 2 2 
2 2 2 2 2 2 2 2 2 
2 2 2 2 2 2 2 2 2 
2 2 2 2 2 2 2 2 2 
2 2 2 2 2 2 2 2 2 
2 2 2 2 2 2 2 2 2 
2 2 2 2 2 2 2 2 2 
2 2 2 2 2 2 2 2 2 
2 2 2 2 2 2 2 2 2 
2 2 2 2 2 2 2 2 2 
2 2 2 2 2 2 2 2 2 
2 2 2 2 2 2 2 2 2 
2 2 2 2 2 2 2 2 2 
2 2 2 2 2 2 2 2 2 
2 2 2 2 2 2 2 2 2 
2 2 2 2 2 2 2 2 2 
2 2 2 2 2 2 2 2 2 
2 2 2 2 2 2 2 2 2 
2 2 2 2 2 2 2 2 2 
2 2 2 2 2 2 2 2 2 
2 2 2 2 2 2 2 2 2 
2 2 2 2 2 2 2 2 2 
2 2 2 2 2 2 2 2 2 
2 2 2 2 2 2 2 2 2 
2 2 2 2 2 2 2 2 2 
2 2 2 2 2 2 2 2 2 
2 2 2 2 2 2 2 2 2 
2 2 2 2 2 2 2 2 2 
2 2 2 2 2 2 2 2 2 
2 2 2 2 2 2 2 2 2 
2 2 2 2 2 2 2 2 2 
2 2 2 2 2 2 2 2 2 
2 2 2 2 2 2 2 2 2 
2 2 2 2 2 2 2 2 2 
2 2 2 2 2 2 2 2 2 
2 2 2 2 2 2 2 2 2 
2 2 2 2 2 2 2 2 2 
2 2 2 2 2 2 2 2 2 
2 2 2 2 2 2 2 2 2 
2 2 2 2 2 2 2 2 2 
2 2 2 2 2 2 2 2 2 
2 2 2 2 2 2 2 2 2 
2 2 2 2 2 2 2 2 2 
2 2 2 2 2 2 2 2 2 
2 2 2 2 2 2 2 2 2 
2 2 2 2 2 2 2 2 2 
2 2 
i 3 1352 int
0 0 0 0 0 0 0 0 0 
0 0 0 0 0 0 0 0 0 
0 0 0 0 0 0 0 0 0 
0 0 0 0 0 0 0 0 0 
0 0 0 0 0 0 0 0 0 
0 0 0 0 0 0 0 0 0 
0 0 0 0 0 0 0 0 0 
0 0 0 0 0 0 0 0 0 
0 0 0 0 0 0 0 0 0 
0 0 0 0 0 0 0 0 0 
0 0 0 0 0 0 0 0 0 
0 0 0 0 0 0 0 0 0 
0 0 0 0 0 0 0 0 0 
0 0 0 0 0 0 0 0 0 
0 0 0 0 0 0 0 0 0 
0 0 0 0 0 0 0 0 0 
0 0 0 0 0 0 0 0 0 
0 0 0 0 0 0 0 0 0 
0 0 0 0 0 0 0 0 0 
0 0 0 0 0 0 0 0 0 
0 0 0 0 0 0 0 0 0 
0 0 0 0 0 0 0 0 0 
0 0 0 0 0 0 0 0 0 
0 0 0 0 0 0 0 0 0 
0 0 0 0 0 0 0 0 0 
0 0 0 0 0 0 0 0 0 
0 0 0 0 0 0 0 0 0 
0 0 0 0 0 0 0 0 0 
0 0 0 0 0 0 0 0 0 
0 0 0 0 0 0 0 0 0 
0 0 0 0 0 0 0 0 0 
0 0 0 0 0 0 0 0 0 
0 0 0 0 0 0 0 0 0 
0 0 0 0 0 0 0 0 0 
0 0 0 0 0 0 0 0 0 
0 0 0 0 0 0 0 0 0 
0 0 0 0 0 0 0 0 0 
0 0 0 0 0 0 0 0 0 
0 0 0 0 0 0 0 0 0 
0 0 0 0 0 0 0 0 0 
0 0 0 0 0 0 0 0 0 
0 0 0 0 0 0 0 0 0 
0 0 0 0 0 0 0 0 0 
0 0 0 0 0 0 0 0 0 
0 0 0 0 0 0 0 0 0 
0 0 0 0 0 0 0 0 0 
0 0 0 0 0 0 0 0 0 
0 0 0 0 0 0 0 0 0 
0 0 0 0 0 0 0 0 0 
0 0 0 0 0 0 0 0 0 
0 0 0 0 0 0 0 0 0 
0 0 0 0 0 0 0 0 0 
0 0 0 0 0 0 0 0 0 
0 0 0 0 0 0 0 0 0 
0 0 0 0 0 0 0 0 0 
0 0 0 0 0 0 0 0 0 
0 0 0 0 0 0 0 0 0 
0 0 0 0 0 0 0 0 0 
0 0 0 0 0 0 0 0 0 
0 0 0 0 0 0 0 0 0 
0 0 0 0 0 0 0 0 0 
0 0 0 0 0 0 0 0 0 
0 0 0 0 0 0 0 0 0 
0 0 0 0 0 0 0 0 0 
0 0 0 0 0 0 0 0 0 
0 0 0 0 0 0 0 0 0 
0 0 0 0 0 0 0 0 0 
0 0 0 0 0 0 0 0 0 
0 0 0 0 0 0 0 0 0 
0 0 0 0 0 0 0 0 0 
0 0 0 0 0 0 0 0 0 
0 0 0 0 0 0 0 0 0 
0 0 0 0 0 0 0 0 0 
0 0 0 0 0 0 0 0 0 
0 0 0 0 0 0 0 0 0 
0 0 0 0 0 0 0 0 0 
0 0 0 0 0 0 0 0 0 
0 0 0 0 0 0 0 0 0 
0 0 0 0 0 0 0 0 0 
0 0 0 0 0 0 0 0 0 
0 0 0 0 0 0 0 0 0 
0 0 0 0 0 0 0 0 0 
0 0 0 0 0 0 0 0 0 
0 0 0 0 0 0 0 0 0 
0 0 0 0 0 0 0 0 0 
0 0 0 0 0 0 0 0 0 
0 0 0 0 0 0 0 0 0 
0 0 0 0 0 0 0 0 0 
0 0 0 0 0 0 0 0 0 
0 0 0 0 0 0 0 0 0 
0 0 0 0 0 0 0 0 0 
0 0 0 0 0 0 0 0 0 
0 0 0 0 0 0 0 0 0 
0 0 0 0 0 0 0 0 0 
0 0 0 0 0 0 0 0 0 
0 0 0 0 0 0 0 0 0 
0 0 0 0 0 0 0 0 0 
0 0 0 0 0 0 0 0 0 
0 0 0 0 0 0 0 0 0 
0 0 0 0 0 0 0 0 0 
0 0 0 0 0 0 0 0 0 
0 0 0 0 0 0 0 0 0 
0 0 0 0 0 0 0 0 0 
0 0 0 0 0 0 0 0 0 
0 0 0 0 0 0 0 0 0 
0 0 0 0 0 0 0 0 0 
0 0 0 0 0 0 0 0 0 
0 0 0 0 0 0 0 0 0 
0 0 0 0 0 0 0 0 0 
0 0 0 0 0 0 0 0 0 
0 0 0 0 0 0 0 0 0 
0 0 0 0 0 0 0 0 0 
0 0 0 0 0 0 0 0 0 
0 0 0 0 0 0 0 0 0 
0 0 0 0 0 0 0 0 0 
0 0 0 0 0 0 0 0 0 
0 0 0 0 0 0 0 0 0 
0 0 0 0 0 0 0 0 0 
0 0 0 0 0 0 0 0 0 
0 0 0 0 0 0 0 0 0 
0 0 0 0 0 0 0 0 0 
0 0 0 0 0 0 0 0 0 
0 0 0 0 0 0 0 0 0 
0 0 0 0 0 0 0 0 0 
0 0 0 0 0 0 0 0 0 
0 0 0 0 0 0 0 0 0 
0 0 0 0 0 0 0 0 0 
0 0 0 0 0 0 0 0 0 
0 0 0 0 0 0 0 0 0 
0 0 0 0 0 0 0 0 0 
0 0 0 0 0 0 0 0 0 
0 0 0 0 0 0 0 0 0 
0 0 0 0 0 0 0 0 0 
0 0 0 0 0 0 0 0 0 
0 0 0 0 0 0 0 0 0 
0 0 0 0 0 0 0 0 0 
0 0 0 0 0 0 0 0 0 
0 0 0 0 0 0 0 0 0 
0 0 0 0 0 0 0 0 0 
0 0 0 0 0 0 0 0 0 
0 0 0 0 0 0 0 0 0 
0 0 0 0 0 0 0 0 0 
0 0 0 0 0 0 0 0 0 
0 0 0 0 0 0 0 0 0 
0 0 0 0 0 0 0 0 0 
0 0 0 0 0 0 0 0 0 
0 0 0 0 0 0 0 0 0 
0 0 0 0 0 0 0 0 0 
0 0 0 0 0 0 0 0 0 
0 0 0 0 0 0 0 0 0 
0 0 0 0 0 0 0 0 0 
0 0 0 0 0 0 0 0 0 
0 0 0 0 0 0 0 0 0 
0 0 0 0 0 0 0 0 0 
0 0 0 0 0 0 0 0 0 
0 0 0 0 0 0 0 0 0 
0 0 0 0 0 0 0 0 0 
0 0 0 0 0 0 0 0 0 
0 0 0 0 0 0 0 0 0 
0 0 0 0 0 0 0 0 0 
0 0 0 0 0 0 0 0 0 
0 0 0 0 0 0 0 0 0 
0 0 0 0 0 0 0 0 0 
0 0 0 0 0 0 0 0 0 
0 0 0 0 0 0 0 0 0 
0 0 0 0 0 0 0 0 0 
0 0 0 0 0 0 0 0 0 
0 0 0 0 0 0 0 0 0 
0 0 0 0 0 0 0 0 0 
0 0 0 0 0 0 0 0 0 
0 0 0 0 0 0 0 0 0 
0 0 0 0 0 0 0 0 0 
0 0 0 0 0 0 0 0 0 
0 0 0 0 0 0 0 0 0 
0 0 0 0 0 0 0 0 0 
0 0 0 0 0 0 0 0 0 
0 0 0 0 0 0 0 0 0 
0 0 0 0 0 0 0 0 0 
0 0 0 0 0 0 0 0 0 
0 0 0 0 0 0 0 0 0 
0 0 0 0 0 0 0 0 0 
0 0 0 0 0 0 0 0 0 
0 0 0 0 0 0 0 0 0 
0 0 0 0 0 0 0 0 0 
0 0 0 0 0 0 0 0 0 
0 0 0 0 0 0 0 0 0 
0 0 0 0 0 0 0 0 0 
0 0 0 0 0 0 0 0 0 
0 0 0 0 0 0 0 0 0 
0 0 0 0 0 0 0 0 0 
0 0 0 0 0 0 0 0 0 
0 0 0 0 0 0 0 0 0 
0 0 0 0 0 0 0 0 0 
0 0 0 0 0 0 0 0 0 
0 0 0 0 0 0 0 0 0 
0 0 0 0 0 0 0 0 0 
0 0 0 0 0 0 0 0 0 
0 0 0 0 0 0 0 0 0 
0 0 0 0 0 0 0 0 0 
0 0 0 0 0 0 0 0 0 
0 0 0 0 0 0 0 0 0 
0 0 0 0 0 0 0 0 0 
0 0 0 0 0 0 0 0 0 
0 0 0 0 0 0 0 0 0 
0 0 0 0 0 0 0 0 0 
0 0 0 0 0 0 0 0 0 
0 0 0 0 0 0 0 0 0 
0 0 0 0 0 0 0 0 0 
0 0 0 0 0 0 0 0 0 
0 0 0 0 0 0 0 0 0 
0 0 0 0 0 0 0 0 0 
0 0 0 0 0 0 0 0 0 
0 0 0 0 0 0 0 0 0 
0 0 0 0 0 0 0 0 0 
0 0 0 0 0 0 0 0 0 
0 0 0 0 0 0 0 0 0 
0 0 0 0 0 0 0 0 0 
0 0 0 0 0 0 0 0 0 
0 0 0 0 0 0 0 0 0 
0 0 0 0 0 0 0 0 0 
0 0 0 0 0 0 0 0 0 
0 0 0 0 0 0 0 0 0 
0 0 0 0 0 0 0 0 0 
0 0 0 0 0 0 0 0 0 
0 0 0 0 0 0 0 0 0 
0 0 0 0 0 0 0 0 0 
0 0 0 0 0 0 0 0 0 
0 0 0 0 0 0 0 0 0 
0 0 0 0 0 0 0 0 0 
0 0 0 0 0 0 0 0 0 
0 0 0 0 0 0 0 0 0 
0 0 0 0 0 0 0 0 0 
0 0 0 0 0 0 0 0 0 
0 0 0 0 0 0 0 0 0 
0 0 0 0 0 0 0 0 0 
0 0 0 0 0 0 0 0 0 
0 0 0 0 0 0 0 0 0 
0 0 0 0 0 0 0 0 0 
0 0 0 0 0 0 0 0 0 
0 0 0 0 0 0 0 0 0 
0 0 0 0 0 0 0 0 0 
0 0 0 0 0 0 0 0 0 
0 0 0 0 0 0 0 0 0 
0 0 0 0 0 0 0 0 0 
0 0 0 0 0 0 0 0 0 
0 0 0 0 0 0 0 0 0 
0 0 0 0 0 0 0 0 0 
0 0 0 0 0 0 0 0 0 
0 0 0 0 0 0 0 0 0 
0 0 0 0 0 0 0 0 0 
0 0 0 0 0 0 0 0 0 
0 0 0 0 0 0 0 0 0 
0 0 0 0 0 0 0 0 0 
0 0 0 0 0 0 0 0 0 
0 0 0 0 0 0 0 0 0 
0 0 0 0 0 0 0 0 0 
0 0 0 0 0 0 0 0 0 
0 0 0 0 0 0 0 0 0 
0 0 0 0 0 0 0 0 0 
0 0 0 0 0 0 0 0 0 
0 0 0 0 0 0 0 0 0 
0 0 0 0 0 0 0 0 0 
0 0 0 0 0 0 0 0 0 
0 0 0 0 0 0 0 0 0 
0 0 0 0 0 0 0 0 0 
0 0 0 0 0 0 0 0 0 
0 0 0 0 0 0 0 0 0 
0 0 0 0 0 0 0 0 0 
0 0 0 0 0 0 0 0 0 
0 0 0 0 0 0 0 0 0 
0 0 0 0 0 0 0 0 0 
0 0 0 0 0 0 0 0 0 
0 0 0 0 0 0 0 0 0 
0 0 0 0 0 0 0 0 0 
0 0 0 0 0 0 0 0 0 
0 0 0 0 0 0 0 0 0 
0 0 0 0 0 0 0 0 0 
0 0 0 0 0 0 0 0 0 
0 0 0 0 0 0 0 0 0 
0 0 0 0 0 0 0 0 0 
0 0 0 0 0 0 0 0 0 
0 0 0 0 0 0 0 0 0 
0 0 0 0 0 0 0 0 0 
0 0 0 0 0 0 0 0 0 
0 0 0 0 0 0 0 0 0 
0 0 0 0 0 0 0 0 0 
0 0 0 0 0 0 0 0 0 
0 0 0 0 0 0 0 0 0 
0 0 0 0 0 0 0 0 0 
0 0 0 0 0 0 0 0 0 
0 0 0 0 0 0 0 0 0 
0 0 0 0 0 0 0 0 0 
0 0 0 0 0 0 0 0 0 
0 0 0 0 0 0 0 0 0 
0 0 0 0 0 0 0 0 0 
0 0 0 0 0 0 0 0 0 
0 0 0 0 0 0 0 0 0 
0 0 0 0 0 0 0 0 0 
0 0 0 0 0 0 0 0 0 
0 0 0 0 0 0 0 0 0 
0 0 0 0 0 0 0 0 0 
0 0 0 0 0 0 0 0 0 
0 0 0 0 0 0 0 0 0 
0 0 0 0 0 0 0 0 0 
0 0 0 0 0 0 0 0 0 
0 0 0 0 0 0 0 0 0 
0 0 0 0 0 0 0 0 0 
0 0 0 0 0 0 0 0 0 
0 0 0 0 0 0 0 0 0 
0 0 0 0 0 0 0 0 0 
0 0 0 0 0 0 0 0 0 
0 0 0 0 0 0 0 0 0 
0 0 0 0 0 0 0 0 0 
0 0 0 0 0 0 0 0 0 
0 0 0 0 0 0 0 0 0 
0 0 0 0 0 0 0 0 0 
0 0 0 0 0 0 0 0 0 
0 0 0 0 0 0 0 0 0 
0 0 0 0 0 0 0 0 0 
0 0 0 0 0 0 0 0 0 
0 0 0 0 0 0 0 0 0 
0 0 0 0 0 0 0 0 0 
0 0 0 0 0 0 0 0 0 
0 0 0 0 0 0 0 0 0 
0 0 0 0 0 0 0 0 0 
0 0 0 0 0 0 0 0 0 
0 0 0 0 0 0 0 0 0 
0 0 0 0 0 0 0 0 0 
0 0 0 0 0 0 0 0 0 
0 0 0 0 0 0 0 0 0 
0 0 0 0 0 0 0 0 0 
0 0 0 0 0 0 0 0 0 
0 0 0 0 0 0 0 0 0 
0 0 0 0 0 0 0 0 0 
0 0 0 0 0 0 0 0 0 
0 0 0 0 0 0 0 0 0 
0 0 0 0 0 0 0 0 0 
0 0 0 0 0 0 0 0 0 
0 0 0 0 0 0 0 0 0 
0 0 0 0 0 0 0 0 0 
0 0 0 0 0 0 0 0 0 
0 0 0 0 0 0 0 0 0 
0 0 0 0 0 0 0 0 0 
0 0 0 0 0 0 0 0 0 
0 0 0 0 0 0 0 0 0 
0 0 0 0 0 0 0 0 0 
0 0 0 0 0 0 0 0 0 
0 0 0 0 0 0 0 0 0 
0 0 0 0 0 0 0 0 0 
0 0 0 0 0 0 0 0 0 
0 0 0 0 0 0 0 0 0 
0 0 0 0 0 0 0 0 0 
0 0 0 0 0 0 0 0 0 
0 0 0 0 0 0 0 0 0 
0 0 0 0 0 0 0 0 0 
0 0 0 0 0 0 0 0 0 
0 0 0 0 0 0 0 0 0 
0 0 0 0 0 0 0 0 0 
0 0 0 0 0 0 0 0 0 
0 0 0 0 0 0 0 0 0 
0 0 0 0 0 0 0 0 0 
0 0 0 0 0 0 0 0 0 
0 0 0 0 0 0 0 0 0 
0 0 0 0 0 0 0 0 0 
0 0 0 0 0 0 0 0 0 
0 0 0 0 0 0 0 0 0 
0 0 0 0 0 0 0 0 0 
0 0 0 0 0 0 0 0 0 
0 0 0 0 0 0 0 0 0 
0 0 0 0 0 0 0 0 0 
0 0 0 0 0 0 0 0 0 
0 0 0 0 0 0 0 0 0 
0 0 0 0 0 0 0 0 0 
0 0 0 0 0 0 0 0 0 
0 0 0 0 0 0 0 0 0 
0 0 0 0 0 0 0 0 0 
0 0 0 0 0 0 0 0 0 
0 0 0 0 0 0 0 0 0 
0 0 0 0 0 0 0 0 0 
0 0 0 0 0 0 0 0 0 
0 0 0 0 0 0 0 0 0 
0 0 0 0 0 0 0 0 0 
0 0 0 0 0 0 0 0 0 
0 0 0 0 0 0 0 0 0 
0 0 0 0 0 0 0 0 0 
0 0 0 0 0 0 0 0 0 
0 0 0 0 0 0 0 0 0 
0 0 0 0 0 0 0 0 0 
0 0 0 0 0 0 0 0 0 
0 0 0 0 0 0 0 0 0 
0 0 0 0 0 0 0 0 0 
0 0 0 0 0 0 0 0 0 
0 0 0 0 0 0 0 0 0 
0 0 0 0 0 0 0 0 0 
0 0 0 0 0 0 0 0 0 
0 0 0 0 0 0 0 0 0 
0 0 0 0 0 0 0 0 0 
0 0 0 0 0 0 0 0 0 
0 0 0 0 0 0 0 0 0 
0 0 0 0 0 0 0 0 0 
0 0 0 0 0 0 0 0 0 
0 0 0 0 0 0 0 0 0 
0 0 0 0 0 0 0 0 0 
0 0 0 0 0 0 0 0 0 
0 0 0 0 0 0 0 0 0 
0 0 0 0 0 0 0 0 0 
0 0 0 0 0 0 0 0 0 
0 0 0 0 0 0 0 0 0 
0 0 0 0 0 0 0 0 0 
0 0 0 0 0 0 0 0 0 
0 0 0 0 0 0 0 0 0 
0 0 0 0 0 0 0 0 0 
0 0 0 0 0 0 0 0 0 
0 0 0 0 0 0 0 0 0 
0 0 0 0 0 0 0 0 0 
0 0 0 0 0 0 0 0 0 
0 0 0 0 0 0 0 0 0 
0 0 0 0 0 0 0 0 0 
0 0 0 0 0 0 0 0 0 
0 0 0 0 0 0 0 0 0 
0 0 0 0 0 0 0 0 0 
0 0 0 0 0 0 0 0 0 
0 0 0 0 0 0 0 0 0 
0 0 0 0 0 0 0 0 0 
0 0 0 0 0 0 0 0 0 
0 0 0 0 0 0 0 0 0 
0 0 0 0 0 0 0 0 0 
0 0 0 0 0 0 0 0 0 
0 0 0 0 0 0 0 0 0 
0 0 0 0 0 0 0 0 0 
0 0 0 0 0 0 0 0 0 
0 0 0 0 0 0 0 0 0 
0 0 0 0 0 0 0 0 0 
0 0 0 0 0 0 0 0 0 
0 0 0 0 0 0 0 0 0 
0 0 0 0 0 0 0 0 0 
0 0 0 0 0 0 0 0 0 
0 0 0 0 0 0 0 0 0 
0 0 0 0 0 0 0 0 0 
0 0 0 0 0 0 0 0 0 
0 0 0 0 0 0 0 0 0 
0 0 0 0 0 0 0 0 0 
0 0 0 0 0 0 0 0 0 
0 0 0 0 0 0 0 0 0 
0 0 0 0 0 0 0 0 0 
0 0 0 0 0 0 0 0 0 
0 0 0 0 0 0 0 0 0 
0 0 0 0 0 0 0 0 0 
0 0 0 0 0 0 0 0 0 
0 0 0 0 0 0 0 0 0 
0 0 0 0 0 0 
v 3 1352 double
0.011712751963 -0.0037290385148 -0.0011384930739 0.012495207426 0.0006345144298 0.0021036559241 -0.00080340767465 0.032226313364 0.019562144673 
-0.0045732150366 0.00083882554838 -0.025395399488 -0.11705411993 0.011019735801 -0.0039391850849 -0.15472652587 0.054371164332 0.017807489663 
-0.084222972431 0.081829535961 -0.0015657430505 -0.015970077835 0.15166809512 0.0078683031147 0.0084999301845 0.1323890659 0.0081926522313 
-0.015444081516 0.16804910789 -0.083079636091 0.052127350168 -0.038472436292 -0.01117748464 -0.0056303209371 0.0085283445581 0.016039859049 
-0.027173646627 0.011902077028 0.021408443641 0.0086390268809 0.038845535794 -0.0015567670795 -0.048854073712 0.026637929028 -0.011723865227 
-0.078830096885 0.05744859893 0.00019912973901 -0.056515204009 0.17504659774 -0.013208176053 -0.017899220674 0.018956035487 -0.014433201323 
-0.01040054753 0.0058004044742 0.04555054737 0.019798951085 0.040401127349 0.0076420378047 -0.044479431725 0.065727100263 0.003206731493 
0.00042695319134 0.13846042764 0.029105660503 0.0049081045165 0.048854951722 -0.013857902743 0.060759685238 0.03755201171 -0.010385692456 
-0.024108631974 0.052866387327 -0.0092589620461 0.013945071266 0.00087188620523 -0.00010261916718 -0.016161769339 0.050630305931 0.0445799474 
0.096087284017 0.12261288527 -0.004294039915 -0.034606769077 0.14722991151 -0.037268245218 0.025682621464 0.12898695416 -0.071542077916 
0.016239508666 -0.001562501614 0.0036778138471 -0.1632132347 0.016458060305 -0.098071338305 0.017418324533 0.057616216922 -0.030352324845 