# vtk DataFile Version 5.1
Generated by LIGGGHTS
ASCII
DATASET POLYDATA
POINTS 400 float
-0.109451 0.0607851 -0.143852 -0.0624635 0.0574162 -0.143497 -0.108186 0.0750771 -0.143038 
-0.0586099 0.0819926 -0.144845 -0.0504766 0.0940919 -0.144871 -0.0505581 0.110077 -0.142409 
-0.0230688 0.102219 -0.144256 -0.101362 0.113865 -0.145986 -0.0231433 0.111781 -0.14386 
-0.101436 0.12325 -0.146364 -0.143989 0.0552427 -0.139614 -0.0135413 0.0571644 -0.13765 
-0.144075 0.064974 -0.142615 -0.0455425 0.0733083 -0.138668 -0.0402669 0.084051 -0.133035 
-0.0461854 0.0936368 -0.133005 -0.101769 0.121719 -0.138393 -0.110813 0.0562902 -0.134484 
-0.0547627 0.0676402 -0.133394 -0.140558 0.0733805 -0.134735 -0.109787 0.0724019 -0.130522 
-0.0638234 0.0694323 -0.128745 -0.127336 0.0921202 -0.131567 -0.0564495 0.09031 -0.131445 
-0.0561252 0.101126 -0.13231 -0.0186425 0.111177 -0.131787 -0.144962 0.0644072 -0.124481 
-0.131651 0.0643655 -0.128917 -0.106711 0.0631754 -0.123297 -0.119628 0.0714872 -0.119248 
-0.0379932 0.0709393 -0.119674 -0.0569888 0.0757192 -0.118741 -0.137537 0.116227 -0.120895 
-0.1054 0.0551335 -0.116724 -0.0794191 0.0607492 -0.113063 -0.144288 0.0693605 -0.113092 
-0.0462005 0.0663113 -0.112512 -0.0798268 0.0782842 -0.112723 -0.0311773 0.0759178 -0.114382 
-0.142608 0.0863226 -0.114606 -0.106882 0.0622154 -0.107355 -0.023974 0.0690074 -0.110027 
-0.140846 0.0794067 -0.105571 -0.0376925 0.0627208 -0.103091 -0.00971076 0.0558869 -0.100873 
-0.0101392 0.0659099 -0.101318 -0.105452 0.0553792 -0.0891982 -0.055011 0.0600112 -0.0947327 
-0.073997 0.0557914 -0.0871838 -0.0490504 0.0548026 -0.0857161 -0.0862438 0.0619139 -0.0889079 
-0.0689484 0.114356 -0.0873534 -0.0615938 0.0570818 -0.0763828 -0.051051 0.0808373 -0.0822466 
-0.102233 0.0621978 -0.0710989 -0.0183655 0.0659687 -0.0746669 -0.115324 0.0771921 -0.0710389 
-0.102754 0.0778303 -0.0742044 -0.0407379 0.079533 -0.0757938 -0.0118694 0.0839681 -0.0688276 
-0.0848825 0.106885 -0.0727564 -0.118253 0.055637 -0.0627933 -0.0621766 0.0575165 -0.0659404 
-0.0485176 0.0777029 -0.0643575 -0.0968452 0.100469 -0.0670305 -0.110112 0.0723808 -0.0566882 
-0.0242167 0.0734033 -0.0599198 -0.135531 0.0596365 -0.0464907 -0.0825843 0.0669797 -0.047696 
-0.0121032 0.0748038 -0.0520047 -0.0529626 0.0817235 -0.0495144 -0.142233 0.0770448 -0.0466391 
-0.0321897 0.0793966 -0.0406702 -0.0346999 0.0940177 -0.0425805 -0.127583 0.0589925 -0.0307993 
-0.0727271 0.0572953 -0.0348578 -0.068577 0.07596 -0.034081 -0.104349 0.0856392 -0.0326997 
-0.0286902 0.0707226 -0.0293131 -0.0940564 0.0637913 -0.0189673 -0.0865674 0.0720276 -0.0223053 
-0.0911479 0.0935792 -0.0183407 -0.0810673 0.0947204 -0.0186499 -0.0488331 0.0914246 -0.019761 
-0.103602 0.0698368 -0.0100111 -0.0163235 0.0763244 -0.0109567 -0.0798197 0.111891 -0.00991617 
-0.0684745 0.124106 -0.0136913 -0.0554235 0.0547751 -0.00649446 -0.055993 0.064591 -0.00663371 
-0.0261087 0.0762443 -0.00261129 -0.0532986 0.074911 -0.00115547 -0.0413836 0.074911 -0.00115547 
-0.0898868 0.103079 -0.00142829 -0.0811154 0.102569 -0.00501918 -0.0687281 0.113537 -0.00429084 
-0.0684745 0.124106 -0.00407499 -0.000201684 0.0593451 0.00582303 -0.106972 0.0764134 0.00709514 
-0.00144183 0.0738084 0.00458288 -0.0977433 0.0858364 0.000611231 -0.097681 0.09648 0.001278 
-0.0729935 0.102709 0.00665686 -0.076551 0.111692 0.00294365 -0.106381 0.0605915 0.00813948 
-0.0847236 0.0556067 0.0122739 -0.0748422 0.0557119 0.0101621 -0.144239 0.067451 0.0139351 
-0.0858605 0.0656831 0.0085561 -0.075484 0.0671815 0.0103042 -0.042561 0.057277 0.0129202 
-0.0237264 0.0615013 0.0148277 -0.0353252 0.0746207 0.014078 -0.142336 0.0898885 0.0120636 
-0.110192 0.094749 0.00827233 -0.143533 0.0993781 0.0114397 -0.110207 0.105272 0.00800912 
-0.074967 0.110269 0.011581 -0.079087 0.121488 0.0139143 -0.0987059 0.0548702 0.0196784 
-0.062023 0.0569965 0.0160095 -0.0713822 0.0549493 0.0203229 -0.104731 0.0632175 0.0175537 
-0.0694124 0.0646958 0.0205426 -0.0201018 0.0756315 0.0143816 -0.100132 0.0735807 0.0165068 
-0.00985644 0.0830124 0.0153254 -0.0066187 0.100084 0.0202984 -0.137759 0.118948 0.0175844 
-0.11158 0.0566803 0.0255853 -0.0109711 0.059778 0.0288681 -0.086405 0.0580722 0.0242975 
-0.0157876 0.0674545 0.0240336 -0.115154 0.0670356 0.0234251 -0.144393 0.0713618 0.024856 
-0.114989 0.0767538 0.0233845 -0.144714 0.0835517 0.0241307 -0.137495 0.107732 0.0268044 
-0.136136 0.0636086 0.0351489 -0.0561361 0.0555007 0.0332649 -0.102107 0.0546717 0.0365718 
-0.0522676 0.066857 0.0343919 -0.0568742 0.0925226 0.0321826 -0.0424521 0.121435 0.0369004 
-0.0660782 0.0642028 0.0377727 -0.0496014 0.0555175 0.0443414 -0.0893586 0.0736154 0.0445455 
-0.0470439 0.0719429 0.0412644 -0.128779 0.105661 0.0413904 -0.123218 0.0618348 0.0462115 
-0.0997365 0.0575162 0.0496968 -0.0898814 0.100476 0.0474762 -0.0610964 0.0582546 0.0585368 
-0.0401407 0.0547008 0.0590509 -0.116583 0.0773604 0.0530976 -0.069135 0.105954 0.0553639 
-0.106768 0.0727348 0.062131 -0.0515694 0.0814106 0.0621647 -0.095388 0.079896 0.0674947 
-0.0952825 0.0935792 0.0663033 -0.0884598 0.0593554 0.0731301 -0.130066 0.0709866 0.0738558 
-0.139786 0.0744894 0.0708092 -0.0517667 0.0776669 0.0735373 -0.0624371 0.0829228 0.0723856 
-0.108929 0.0571491 0.0804815 -0.0849956 0.0692806 0.0814699 -0.0994182 0.0918369 0.0791753 
-0.141346 0.0626335 0.0840536 -0.0260893 0.0682369 0.0831826 -0.120295 0.0750302 0.0836254 
-0.0419235 0.0907669 0.0877384 -0.0169162 0.0664074 0.0973861 -0.111623 0.0782577 0.0915163 
-0.0657634 0.085075 0.0925215 -0.0812076 0.0625136 0.0994298 -0.140335 0.0547486 0.104454 
-0.0286059 0.0653108 0.101528 -0.0288566 0.0871273 0.101278 -0.121109 0.0898329 0.100293 
-0.0579011 0.10565 0.111133 -0.0289468 0.0732031 0.112728 -0.0420553 0.077344 0.114331 
-0.109689 0.098334 0.113554 -0.0596223 0.126029 0.1135 -0.13202 0.0868129 0.121085 
-0.0637539 0.107527 0.120929 -0.0503168 0.115881 0.123094 -0.0487032 0.0640472 0.132029 
-0.116636 0.0894754 0.130383 -0.12368 0.097125 0.130526 -0.0482384 0.0798069 0.137461 
-0.0395339 0.106387 0.13784 -0.0342687 0.113508 0.138068 -0.0719308 0.0591981 0.143829 
-0.0489183 0.0701438 0.143562 -0.0735341 0.0689763 0.144033 -0.0641648 0.0751125 0.144632 
-0.0653463 0.0860926 0.144862 -0.0345988 0.116199 0.146081 0.043185 0.0630473 -0.144727 
0.029114 0.0610806 -0.143141 0.0280195 0.0733663 -0.14352 0.0464759 0.088512 -0.144606 
0.137859 0.0875775 -0.144794 0.139784 0.0975829 -0.145134 0.106159 0.105006 -0.145611 
0.134153 0.105754 -0.142454 0.0217832 0.106372 -0.145703 0.0446546 0.0548402 -0.136493 
0.132551 0.0578319 -0.135652 0.133123 0.0694748 -0.135977 0.0488193 0.0747129 -0.141962 
0.1383 0.0794029 -0.136785 0.0126773 0.089391 -0.138579 0.0131807 0.0990839 -0.139372 
0.00943015 0.113001 -0.139617 0.0176174 0.11108 -0.139061 0.0214508 0.12204 -0.140271 
0.0353856 0.0560615 -0.129561 0.0346587 0.0662977 -0.130288 0.0524692 0.0895613 -0.131584 
0.0314167 0.0977535 -0.128328 0.0095774 0.103405 -0.130225 0.0121765 0.0574144 -0.120536 
0.0112963 0.0686431 -0.121421 0.0488436 0.076904 -0.125438 0.0230101 0.0871669 -0.125863 
0.119776 0.110736 -0.122576 0.050567 0.0603898 -0.116781 0.0674596 0.0575928 -0.119762 
0.100123 0.102277 -0.11855 0.0957195 0.108013 -0.113825 0.0170314 0.0625819 -0.1097 
0.0282394 0.0556391 -0.111731 0.0412918 0.0597962 -0.111358 0.0526983 0.0554081 -0.108146 
0.027637 0.0655301 -0.112334 0.118145 0.069966 -0.105165 0.037729 0.0865987 -0.106936 
0.000696193 0.0617862 -0.0993476 0.0309565 0.0559869 -0.0998004 0.0528945 0.0766783 -0.104507 
0.041472 0.0726129 -0.0975335 0.090253 0.117718 -0.097926 0.0453589 0.0566251 -0.0913998 
0.0617549 0.054997 -0.0946136 0.0705523 0.0549873 -0.0899265 0.0572759 0.0638384 -0.0940989 
0.0805803 0.0594048 -0.0941291 0.0920447 0.0661063 -0.0972959 0.0221878 0.0652509 -0.0946847 
0.136287 0.0812141 -0.0936846 0.0514784 0.0832196 -0.0974309 0.0666263 0.103816 -0.0938224 
0.0103587 0.056002 -0.0849314 0.05571 0.0589699 -0.0830069 0.0173048 0.064156 -0.0849111 
0.00636485 0.0669791 -0.086507 0.011941 0.0804743 -0.0895438 0.0803066 0.067727 -0.0859573 
0.0942544 0.0586838 -0.0800906 0.00409348 0.0626054 -0.0767668 0.0525525 0.0643918 -0.0735858 
0.0925452 0.0721554 -0.0825381 0.108372 0.0789395 -0.0757353 0.0634575 0.0646668 -0.0744107 
0.109538 0.0699615 -0.0700037 0.079161 0.0701474 -0.0727529 0.0379628 0.127407 -0.0698659 
0.0588287 0.0781515 -0.0601573 0.117382 0.0767069 -0.0638732 0.0658769 0.0563754 -0.0531798 
0.116199 0.0656432 -0.0556883 0.0853605 0.0731355 -0.0564998 0.028115 0.0864817 -0.0547748 
0.0134441 0.0922133 -0.0577634 0.0576851 0.0557762 -0.0469724 0.0177288 0.0616122 -0.0464443 
0.0267279 0.0607371 -0.0531736 0.0572044 0.0658568 -0.0474532 0.0372448 0.0947907 -0.0482833 
0.0431438 0.0568907 -0.039966 0.127094 0.0624691 -0.0393402 0.0172081 0.0787793 -0.0445035 
0.0841556 0.0723065 -0.0396007 0.0682018 0.0972793 -0.0405517 0.0374694 0.0672965 -0.0317326 
0.124996 0.0786513 -0.0369793 0.122396 0.0953365 -0.0351566 0.132042 0.104883 -0.0256099 
0.0190596 0.120914 -0.0269865 0.144955 0.087699 -0.0168336 0.135582 0.0958977 -0.0162323 
0.145232 0.0975712 -0.0155396 0.0554466 0.113035 -0.0148172 0.102146 0.0551211 -0.0025227 
0.0697538 0.0649268 -0.00334535 0.0143217 0.0821164 -0.000856333 0.145229 0.0957492 -0.00599226 
0.0730074 0.0571522 0.00263167 0.0496838 0.0662557 0.0050031 0.10103 0.0645632 0.000788574 
0.0803211 0.0773645 0.00207993 0.10491 0.0799226 0.00701009 0.0800557 0.0893287 0.000984235 
0.0535328 0.110582 0.00476507 0.0532686 0.121665 0.0050329 0.0250946 0.0613951 0.0119991 
0.0573437 0.0564147 0.008647 0.0890439 0.0602747 0.0138229 0.0659732 0.0623447 0.0157623 
0.0232622 0.0765613 0.0101667 0.104341 0.0685714 0.00955348 0.0649726 0.0764229 0.0118483 
0.0777402 0.057004 0.0219873 0.106092 0.0551067 0.0144721 0.144532 0.0578237 0.0213606 
0.0769019 0.0699647 0.018988 0.106339 0.0648124 0.0190856 0.114645 0.0704118 0.0174161 
0.0862027 0.0795122 0.0147665 0.0867146 0.0572596 0.0286084 0.112115 0.0583695 0.0241179 
0.0888718 0.0699217 0.0242481 0.122556 0.0550781 0.0242486 0.0791983 0.07749 0.0249039 
0.0791815 0.0879058 0.0245991 0.0254758 0.119202 0.0241685 0.137878 0.0559368 0.0375005 
0.118496 0.0642716 0.0352398 0.104442 0.0696903 0.0337201 0.13283 0.101799 0.0353741 
0.111294 0.114774 0.0366082 0.0912434 0.123887 0.0370225 0.0315408 0.0589395 0.0388371 
0.0856357 0.0627286 0.0393466 0.124941 0.0576838 0.038895 0.105112 0.0556759 0.044158 
0.020013 0.0960151 0.03958 0.115432 0.0984629 0.0385862 0.0197476 0.105962 0.0396801 
0.132526 0.109188 0.0411836 0.0910249 0.113974 0.0375861 0.133061 0.0547526 0.0534427 
0.115698 0.0900811 0.0477984 0.0910195 0.0935164 0.0508434 0.0378833 0.0674545 0.0559181 
0.0012834 0.0674668 0.0531299 0.0286351 0.0910182 0.0550417 0.0928137 0.115797 0.0589368 
0.0852251 0.125017 0.0569815 0.025343 0.0597576 0.0583599 0.042608 0.0552604 0.0665837 
0.0998063 0.0694638 0.0674313 0.0456427 0.0742931 0.0625766 0.000582045 0.0782941 0.0637235 
0.135091 0.0612465 0.0713144 0.062162 0.0688765 0.0722045 0.108329 0.0753704 0.0738053 
0.00101075 0.0596777 0.0816485 0.0247892 0.0583553 0.0773811 0.0168047 0.0677905 0.0782894 
0.00513332 0.0799152 0.0808311 0.0552498 0.0627179 0.0834333 0.1206 0.0563467 0.0864043 
0.00538363 0.0696859 0.0830615 0.019721 0.0781264 0.0870307 0.0863745 0.0676057 0.0896357 
0.0098342 0.0551328 0.0913869 0.0312609 0.0703357 0.0908016 0.0383333 0.0789743 0.0938255 
0.0561334 0.119683 0.092473 0.123469 0.121189 0.0957058 0.0386968 0.0627099 0.103128 
0.0699772 0.0668065 0.104162 0.0465584 0.0777089 0.0997886 0.0201643 0.108425 0.101907 
0.128207 0.0570812 0.106715 0.123464 0.110881 0.105472 0.0767971 0.0613979 0.117958 
0.143526 0.0594085 0.114942 0.0435697 0.0720844 0.11681 0.060713 0.0547381 0.115558 
0.0572248 0.0833256 0.115562 0.0201513 0.109026 0.112865 0.0142616 0.0665825 0.12274 
0.0537937 0.0711491 0.126456 0.0859132 0.0657178 0.128824 0.127503 0.0683616 0.129482 
0.138101 0.0620909 0.131064 0.0571803 0.0955819 0.13257 0.0896803 0.0995176 0.130556 
0.144344 0.0555069 0.137496 0.00483994 0.0819391 0.13994 0.0430943 0.0837355 0.136446 
0.0806615 0.10078 0.139558 0.13126 0.0590484 0.14357 0.0143553 0.0731073 0.144141 
0.114645 0.0766095 0.143313 
VERTICES 401 400
OFFSETS vtktypeint64
0 1 2 3 4 5 6 7 8 
9 10 11 12 13 14 15 16 17 
18 19 20 21 22 23 24 25 26 
27 28 29 30 31 32 33 34 35 
36 37 38 39 40 41 42 43 44 
45 46 47 48 49 50 51 52 53 
54 55 56 57 58 59 60 61 62 
63 64 65 66 67 68 69 70 71 
72 73 74 75 76 77 78 79 80 
81 82 83 84 85 86 87 88 89 
90 91 92 93 94 95 96 97 98 
99 100 101 102 103 104 105 106 107 
108 109 110 111 112 113 114 115 116 
117 118 119 120 121 122 123 124 125 
126 127 128 129 130 131 132 133 134 
135 136 137 138 139 140 141 142 143 
144 145 146 147 148 149 150 151 152 
153 154 155 156 157 158 159 160 161 
162 163 164 165 166 167 168 169 170 
171 172 173 174 175 176 177 178 179 
180 181 182 183 184 185 186 187 188 
189 190 191 192 193 194 195 196 197 
198 199 200 201 202 203 204 205 206 
207 208 209 210 211 212 213 214 215 
216 217 218 219 220 221 222 223 224 
225 226 227 228 229 230 231 232 233 
234 235 236 237 238 239 240 241 242 
243 244 245 246 247 248 249 250 251 
252 253 254 255 256 257 258 259 260 
261 262 263 264 265 266 267 268 269 
270 271 272 273 274 275 276 277 278 
279 280 281 282 283 284 285 286 287 
288 289 290 291 292 293 294 295 296 
297 298 299 300 301 302 303 304 305 
306 307 308 309 310 311 312 313 314 
315 316 317 318 319 320 321 322 323 
324 325 326 327 328 329 330 331 332 
333 334 335 336 337 338 339 340 341 
342 343 344 345 346 347 348 349 350 
351 352 353 354 355 356 357 358 359 
360 361 362 363 364 365 366 367 368 
369 370 371 372 373 374 375 376 377 
378 379 380 381 382 383 384 385 386 
387 388 389 390 391 392 393 394 395 
396 397 398 399 400 
CONNECTIVITY vtktypeint64
0 1 2 3 4 5 6 7 8 
9 10 11 12 13 14 15 16 17 
18 19 20 21 22 23 24 25 26 
27 28 29 30 31 32 33 34 35 
36 37 38 39 40 41 42 43 44 
45 46 47 48 49 50 51 52 53 
54 55 56 57 58 59 60 61 62 
63 64 65 66 67 68 69 70 71 
72 73 74 75 76 77 78 79 80 
81 82 83 84 85 86 87 88 89 
90 91 92 93 94 95 96 97 98 
99 100 101 102 103 104 105 106 107 
108 109 110 111 112 113 114 115 116 
117 118 119 120 121 122 123 124 125 
126 127 128 129 130 131 132 133 134 
135 136 137 138 139 140 141 142 143 
144 145 146 147 148 149 150 151 152 
153 154 155 156 157 158 159 160 161 
162 163 164 165 166 167 168 169 170 
171 172 173 174 175 176 177 178 179 
180 181 182 183 184 185 186 187 188 
189 190 191 192 193 194 195 196 197 
198 199 200 201 202 203 204 205 206 
207 208 209 210 211 212 213 214 215 
216 217 218 219 220 221 222 223 224 
225 226 227 228 229 230 231 232 233 
234 235 236 237 238 239 240 241 242 
243 244 245 246 247 248 249 250 251 
252 253 254 255 256 257 258 259 260 
261 262 263 264 265 266 267 268 269 
270 271 272 273 274 275 276 277 278 
279 280 281 282 283 284 285 286 287 
288 289 290 291 292 293 294 295 296 
297 298 299 300 301 302 303 304 305 
306 307 308 309 310 311 312 313 314 
315 316 317 318 319 320 321 322 323 
324 325 326 327 328 329 330 331 332 
333 334 335 336 337 338 339 340 341 
342 343 344 345 346 347 348 349 350 
351 352 353 354 355 356 357 358 359 
360 361 362 363 364 365 366 367 368 
369 370 371 372 373 374 375 376 377 
378 379 380 381 382 383 384 385 386 
387 388 389 390 391 392 393 394 395 
396 397 398 399 
POINT_DATA 400
FIELD FieldData 8
id 1 400 int
2755 2648 3023 3744 3884 3917 3937 3970 3959 
3994 3781 3773 3801 3726 3844 3873 3987 3745 
2901 3823 3785 3586 3907 3903 3931 3960 3024 
2739 3757 3814 3296 3830 3981 3685 3180 3297 
3242 3403 3852 3894 3727 3025 2823 3734 3766 
3793 2961 3802 3359 3686 3824 3976 3774 2756 
3716 3711 3026 3740 3858 3877 3949 3243 3767 
2824 3932 3786 3404 3758 3687 3181 2825 3853 
2962 3908 3759 3405 3809 3878 3835 3135 3360 
3919 3918 3895 3815 3133 3961 3996 3787 3808 
3134 3846 3845 3939 3938 3975 3995 3263 3182 
3519 3885 3909 3940 3971 2902 3631 3746 3688 
3720 3775 3782 2963 3810 3896 3920 3925 3950 
3962 3988 3768 3747 3788 3803 3816 3244 3831 
3879 3926 3982 3760 3298 3794 3587 3825 3836 
3854 3863 3955 3721 3461 3783 3406 3910 3989 
3735 3136 2826 3847 3941 3728 3769 3027 3761 
3795 3859 3951 3299 2757 3864 3911 3754 3407 
3245 2964 3874 3776 3837 3904 3736 3588 3183 
3898 3817 3865 3880 3748 3804 2509 2649 3886 
3963 3855 3866 3933 3997 3887 3956 3984 3690 
3897 3921 3722 3954 3983 3689 3632 3729 3848 
3875 3977 3161 3818 3849 3838 3876 3905 3942 
3934 3952 2927 3717 3741 3811 3867 3899 3927 
3972 3964 3978 3762 3789 3900 3922 3943 3730 
3749 3860 3888 3965 3665 3440 3944 3957 3208 
3770 2867 2748 3796 3839 3889 3691 3737 2989 
3856 3985 2591 3755 3777 3784 3812 3712 3819 
3868 3881 3945 2481 3162 3805 3731 3840 3826 
3441 2749 3385 3666 3869 3262 3386 3832 3999 
3518 3850 3813 3827 3841 3891 3915 3778 2482 
3763 3797 3929 3613 2483 2750 3842 3928 3713 
2751 3923 3946 3990 3890 3914 3913 3973 3324 
3806 3882 3912 3779 3738 3614 3870 3851 3901 
3966 3991 2790 3714 3764 3750 3084 3820 3790 
3667 3692 3442 3723 3732 3828 3771 3718 2690 
3742 3791 3861 3892 3986 3715 2928 3833 3947 
3979 3998 3756 3739 3751 3807 3924 3930 3953 
3958 3974 3780 3902 3916 3668 3834 3906 3980 
4000 3719 3798 3520 3821 3862 3752 2868 3209 
3765 3743 3325 3871 2484 3799 3843 3857 3829 
3792 3443 2752 3993 3992 2550 3822 3872 3969 
3772 3968 3753 3326 3521 3800 3883 3967 3694 
2753 3725 3724 3733 3935 3936 3444 2754 3893 
3948 3693 2990 3163 
type 1 400 int
2 2 2 2 2 2 2 2 2 
2 2 2 2 2 2 2 2 2 
2 2 2 2 2 2 2 2 2 
2 2 2 2 2 2 2 2 2 
2 2 2 2 2 2 2 2 2 
2 2 2 2 2 2 2 2 2 
2 2 2 2 2 2 2 2 2 
2 2 2 2 2 2 2 2 2 
2 2 2 2 2 2 2 2 2 
2 2 2 2 2 2 2 2 2 
2 2 2 2 2 2 2 2 2 
2 2 2 2 2 2 2 2 2 
2 2 2 2 2 2 2 2 2 
2 2 2 2 2 2 2 2 2 
2 2 2 2 2 2 2 2 2 
2 2 2 2 2 2 2 2 2 
2 2 2 2 2 2 2 2 2 
2 2 2 2 2 2 2 2 2 
2 2 2 2 2 2 2 2 2 
2 2 2 2 2 2 2 2 2 
2 2 2 2 2 2 2 2 2 
2 2 2 2 2 2 2 2 2 
2 2 2 2 2 2 2 2 2 
2 2 2 2 2 2 2 2 2 
2 2 2 2 2 2 2 2 2 
2 2 2 2 2 2 2 2 2 
2 2 2 2 2 2 2 2 2 
2 2 2 2 2 2 2 2 2 
2 2 2 2 2 2 2 2 2 
2 2 2 2 2 2 2 2 2 
2 2 2 2 2 2 2 2 2 
2 2 2 2 2 2 2 2 2 
2 2 2 2 2 2 2 2 2 
2 2 2 2 2 2 2 2 2 
2 2 2 2 2 2 2 2 2 
2 2 2 2 2 2 2 2 2 
2 2 2 2 2 2 2 2 2 
2 2 2 2 2 2 2 2 2 
2 2 2 2 2 2 2 2 2 
2 2 2 2 2 2 2 2 2 
2 2 2 2 2 2 2 2 2 
2 2 2 2 2 2 2 2 2 
2 2 2 2 2 2 2 2 2 
2 2 2 2 2 2 2 2 2 
2 2 2 2 
i 3 400 int
0 0 0 0 0 0 0 0 0 
0 0 0 0 0 0 0 0 0 
0 0 0 0 0 0 0 0 0 
0 0 0 0 0 0 0 0 0 
0 0 0 0 0 0 0 0 0 
0 0 0 0 0 0 0 0 0 
0 0 0 0 0 0 0 0 0 
0 0 0 0 0 0 0 0 0 
0 0 0 0 0 0 0 0 0 
0 0 0 0 0 0 0 0 0 
0 0 0 0 0 0 0 0 0 
0 0 0 0 0 0 0 0 0 
0 0 0 0 0 0 0 0 0 
0 0 0 0 0 0 0 0 0 
0 0 0 0 0 0 0 0 0 
0 0 0 0 0 0 0 0 0 
0 0 0 0 0 0 0 0 0 
0 0 0 0 0 0 0 0 0 
0 0 0 0 0 0 0 0 0 
0 0 0 0 0 0 0 0 0 
0 0 0 0 0 0 0 0 0 
0 0 0 0 0 0 0 0 0 
0 0 0 0 0 0 0 0 0 
0 0 0 0 0 0 0 0 0 
0 0 0 0 0 0 0 0 0 
0 0 0 0 0 0 0 0 0 
0 0 0 0 0 0 0 0 0 
0 0 0 0 0 0 0 0 0 
0 0 0 0 0 0 0 0 0 
0 0 0 0 0 0 0 0 0 
0 0 0 0 0 0 0 0 0 
0 0 0 0 0 0 0 0 0 
0 0 0 0 0 0 0 0 0 
0 0 0 0 0 0 0 0 0 
0 0 0 0 0 0 0 0 0 
0 0 0 0 0 0 0 0 0 
0 0 0 0 0 0 0 0 0 
0 0 0 0 0 0 0 0 0 
0 0 0 0 0 0 0 0 0 
0 0 0 0 0 0 0 0 0 
0 0 0 0 0 0 0 0 0 
0 0 0 0 0 0 0 0 0 
0 0 0 0 0 0 0 0 0 
0 0 0 0 0 0 0 0 0 
0 0 0 0 0 0 0 0 0 
0 0 0 0 0 0 0 0 0 
0 0 0 0 0 0 0 0 0 
0 0 0 0 0 0 0 0 0 
0 0 0 0 0 0 0 0 0 
0 0 0 0 0 0 0 0 0 
0 0 0 0 0 0 0 0 0 
0 0 0 0 0 0 0 0 0 
0 0 0 0 0 0 0 0 0 
0 0 0 0 0 0 0 0 0 
0 0 0 0 0 0 0 0 0 
0 0 0 0 0 0 0 0 0 
0 0 0 0 0 0 0 0 0 
0 0 0 0 0 0 0 0 0 
0 0 0 0 0 0 0 0 0 
0 0 0 0 0 0 0 0 0 
0 0 0 0 0 0 0 0 0 
0 0 0 0 0 0 0 0 0 
0 0 0 0 0 0 0 0 0 
0 0 0 0 0 0 0 0 0 
0 0 0 0 0 0 0 0 0 
0 0 0 0 0 0 0 0 0 
0 0 0 0 0 0 0 0 0 
0 0 0 0 0 0 0 0 0 
0 0 0 0 0 0 0 0 0 
0 0 0 0 0 0 0 0 0 
0 0 0 0 0 0 0 0 0 
0 0 0 0 0 0 0 0 0 
0 0 0 0 0 0 0 0 0 
0 0 0 0 0 0 0 0 0 
0 0 0 0 0 0 0 0 0 
0 0 0 0 0 0 0 0 0 
0 0 0 0 0 0 0 0 0 
0 0 0 0 0 0 0 0 0 
0 0 0 0 0 0 0 0 0 
0 0 0 0 0 0 0 0 0 
0 0 0 0 0 0 0 0 0 
0 0 0 0 0 0 0 0 0 
0 0 0 0 0 0 0 0 0 
0 0 0 0 0 0 0 0 0 
0 0 0 0 0 0 0 0 0 
0 0 0 0 0 0 0 0 0 
0 0 0 0 0 0 0 0 0 
0 0 0 0 0 0 0 0 0 
0 0 0 0 0 0 0 0 0 
0 0 0 0 0 0 0 0 0 
0 0 0 0 0 0 0 0 0 
0 0 0 0 0 0 0 0 0 
0 0 0 0 0 0 0 0 0 
0 0 0 0 0 0 0 0 0 
0 0 0 0 0 0 0 0 0 
0 0 0 0 0 0 0 0 0 
0 0 0 0 0 0 0 0 0 
0 0 0 0 0 0 0 0 0 
0 0 0 0 0 0 0 0 0 
0 0 0 0 0 0 0 0 0 
0 0 0 0 0 0 0 0 0 
0 0 0 0 0 0 0 0 0 
0 0 0 0 0 0 0 0 0 
0 0 0 0 0 0 0 0 0 
0 0 0 0 0 0 0 0 0 
0 0 0 0 0 0 0 0 0 
0 0 0 0 0 0 0 0 0 
0 0 0 0 0 0 0 0 0 
0 0 0 0 0 0 0 0 0 
0 0 0 0 0 0 0 0 0 
0 0 0 0 0 0 0 0 0 
0 0 0 0 0 0 0 0 0 
0 0 0 0 0 0 0 0 0 
0 0 0 0 0 0 0 0 0 
0 0 0 0 0 0 0 0 0 
0 0 0 0 0 0 0 0 0 
0 0 0 0 0 0 0 0 0 
0 0 0 0 0 0 0 0 0 
0 0 0 0 0 0 0 0 0 
0 0 0 0 0 0 0 0 0 
0 0 0 0 0 0 0 0 0 
0 0 0 0 0 0 0 0 0 
0 0 0 0 0 0 0 0 0 
0 0 0 0 0 0 0 0 0 
0 0 0 0 0 0 0 0 0 
0 0 0 0 0 0 0 0 0 
0 0 0 0 0 0 0 0 0 
0 0 0 0 0 0 0 0 0 
0 0 0 0 0 0 0 0 0 
0 0 0 0 0 0 0 0 0 
0 0 0 0 0 0 0 0 0 
0 0 0 0 0 0 0 0 0 
0 0 0 0 0 0 0 0 0 
0 0 0 
v 3 400 double
0.0017108691617 0.092913335528 -0.00014199777 -0.034028346872 0.042358511706 -0.012530444206 0.020631748548 0.17880320196 0.015836613842 
-0.13684008619 -0.45682123738 0.025602696357 -0.01085233179 -0.82897663213 0.039972707858 -0.013734895208 -0.48692684303 0.10265739592 
-0.0054454375635 -1.0033467067 -0.0048384122679 0 -0.94319110419 0.039814523009 -0.0032109286111 -0.99667905255 0.0098342594501 
0.0069106923782 -0.9259293932 0.039814548502 0.00069594407463 0.1559878417 -0.050566694034 0 0.4000234633 0 
0.011975210563 0.25841363844 -0.21815552558 0.066271742858 -0.56661154189 0.040361573367 0.31208578683 -0.4367738468 0.27824734041 
0.11885496493 -0.63082083699 0.21183462095 -0.0069674211245 -0.9721303155 0.0069674211246 -0.094451651339 -0.029940539389 -0.29318987268 
0.11432247107 -0.0080674294763 0.093663119336 0.14255840854 -0.2204099404 -0.30443039913 -0.093359494911 0.015343262754 -0.30567772697 
-0.22463309809 -0.50664149946 0.009785169402 0 -1.0278696845 0 -0.042462211807 -1.0054256705 0.031047097879 
0.0031083959005 -0.99335849204 -0.0030514078837 -0.0017459094468 -1.0111189021 -0.0080386425114 0.047023660214 -0.22867315001 0.053449969818 
-0.28509230218 -0.32031398117 -0.24398425931 0.0340779321 0.0002319135752 0.0029551833854 0.31223624079 -0.33803605457 0.24039670806 
-0.088636660771 -0.31833480745 -0.13020303784 0.1086170075 -0.55587730925 0.28130026752 0.00017700445032 -1.0107416072 -0.012519541024 
0.044403781778 0.014978611389 0.099814755919 -0.005644904192 0.11634111591 0.004857108426 -0.024754517661 0.28774642197 0.26246483399 
-0.064482305143 0.13963330767 0.17489646031 -0.0096575554909 0.27005267014 0.0080604148417 0.39885417134 -0.57343030453 0.30869904634 
0.0015146679419 -1.0302082042 -0.0038100942606 -0.014901053929 -0.088385435829 0.28332991228 0.18580942352 0.21889229546 0.035964813705 
0 0.40003533198 0 0 0.39896583638 0 -0.0031086876156 0.096402335221 -0.003305377453 
-0.026209269302 0.18779502526 -0.02766045925 0.0076670219817 0.05863614927 0.27053373128 -0.013992786988 -0.65740596433 -0.20088876038 
-0.097613623005 0.14261836488 -0.069878233524 0.15577409679 0.085931273869 -0.0040396874537 0 -1.0278696845 0 
-0.00029414138551 -1.0100510944 0.0058730871698 0.21795270778 -0.47837881233 0.18855550643 0 0.39895779965 -0.0048950405667 
-0.0040698707369 0.28466486532 -0.023757018061 0 0.39389108135 0.0050239420839 -1.4485258125e-05 0.39873630553 -3.634419112e-05 
-0.013439671783 0.51232874696 -0.080587636658 0.21664196646 -0.54186668609 -0.31795590965 0 -1 0 
0 -1 0 0.0073616794846 0.22860097262 0.0056379145434 -0.004507024569 0.40045571211 -0.019038581245 
-0.21192915926 -0.071779856971 0.31197155673 -0.0016698730382 -0.99767684974 0.0041568365541 0.16516498594 -0.03766484776 0.11888971262 
0.013750131286 0.41310435568 -0.010249234026 0 0.40508080024 -1.1317962981e-05 0 0.39374558319 -0.0047274651976 
-0.0006249839803 0.39654364795 -0.0035443033661 0 0.41049660782 0 -0.0047128072015 -0.97639564745 0.0059892814046 
0 0.40998550795 0 -0.00014574780339 -0.9878576239 -0.013103090809 0 0.40508628054 1.1391752074e-05 
-0.10261538139 -0.61378662167 -0.019208162786 0.10261538139 0.024450565892 0.019208162786 0 -1 0 
0 -1 8.088568831e-19 0.02717005516 0.18182771144 0.004990411836 0.32607506076 -0.13831851213 -0.20180837672 
-0.0051518002829 -1.0074981052 0.0089462542549 0.003859025224 -0.98573924459 0.0030514078836 0 -0.9721303155 0 
-0.26618017517 -0.56735765787 0.21232770592 -0.0030995011966 0.4005287818 -0.0015598553611 0.0050184951068 -0.98608817937 0.010670165464 
0 -0.9721303155 2.6243361572e-14 -0.0017355790953 -0.26466340461 0.00070181049004 -0.037570230303 0.093607904602 -0.0067806880514 
0.0017389604782 0.39882328398 -0.0017389604782 -0.055655422775 -0.9721303155 2.3470516622e-14 0.055655422775 -0.9721303155 -2.3470112193e-14 
-0.094443766541 -0.99099508957 0.0067677813099 0.0090537897323 -1.0050710616 -0.11989829479 0.0003178502612 -1.0164391779 0.0014461503232 
0 -0.9721303155 -2.6243361572e-14 -0.0053444608278 0.09390465394 -0.0053444608277 -0.0098478849027 0.19480293708 -0.01835862255 
-0.026301618679 0.19420349068 -0.026301618679 0 -1 -0.013934842249 0.0047648130563 -0.97506450167 4.0329564938e-05 
0.090986150552 -1.000384402 0.10391367997 -0.01317286668 -1.0069206427 -0.011830734102 -0.052090922224 0.035942643289 -0.06596472426 
-0.036369366484 0.017974500659 -0.068187313974 -0.010452082555 -0.091864307935 -0.18302572423 -0.010378700774 0.39067777922 0.0041577869807 
0.090991702907 0.041920777393 -0.17142383997 -0.027995564052 0.18752739779 -0.027999057923 -0.32236655344 -0.81779022033 -0.050295707581 
0.050307472457 -0.061266872548 -0.00070941091907 -0.091472869173 -0.54760550676 -0.01458051581 0.01160398339 -1.0411191776 0.002186663581 
-0.0047648130563 -1.0249354983 -4.0329564938e-05 -0.009318504375 -0.93373270834 -0.0097539163526 0 -1 0 
0.0053175394928 -1.0190042628 0.0056724749665 0 -0.9721303155 8.088568831e-19 0.052646281416 0.037273775226 0.039913801461 
-0.014149918022 0.29092622257 -0.128939732 -0.060090067488 -0.74460728349 0.09111915188 -0.37270836757 -0.12860410231 -0.015219738929 
-0.0071728232876 -0.78709314294 0.048262825721 0.094610552457 0.1771568544 -0.11769341558 -0.011593523347 -0.70954182269 -0.011543229584 
0 -1.0278696845 0 0.0069674211245 -0.97909773663 0.0069674211245 0 -0.9721303155 0 
0.21169888592 -0.58674929252 0.12726530016 0.049596459578 0.02619226542 0.061006345325 0.0052454421168 -0.97592621287 0.00031780998075 
0.0090874434629 0.066557485852 0.0035811527627 -0.14425508584 -0.5051370167 -0.08364882404 0.033712270953 -0.97759866889 0 
-0.067728281986 -0.49331255933 -0.045111069083 0.033712270956 -0.93586356108 -0.0066127025115 0 -1.0278696845 -5.7046249395e-14 
0.0011427222985 0.38876322421 0.00064935020248 0.032177223197 -0.15534050735 0.058925707106 0.0013506885284 -0.29049166549 0.004778835931 
-0.082505246832 -0.30597006746 -0.34777336668 0 -1.0278696845 0 -0.0022357930233 -0.9708917541 -0.002153005058 
0 0.41007381017 0 0.126185938 0.058417086797 0.13386467059 -0.0016610994383 0.29654940525 0.0087496036546 
0.13596991955 -0.69716945343 0.12966144626 0 -0.9721303155 0.013934842249 -0.0012004628977 0.38676258401 -0.00065895066189 
0.0020429030869 0.39521847008 -0.0010600737839 -0.0067172086632 0.56567410001 0.037516284279 -0.13848294923 -0.52517893496 0.3306956586 
0 0.38661227289 0 0 -1 0 0 -0.9721303155 8.088568831e-19 
0 0.39882697079 0 0 0.39925497113 0 0 -0.99303257888 8.088568831e-19 
0.0052880434447 -1.0004984641 -0.015408349461 -0.00050609589664 0.39878430253 -0.00032365808807 0.0023122065005 0.39628274053 0.0023597342796 
0.00056348824668 0.40152978625 0.00027402949384 0 0.39875819248 -0.0097057056303 0 -1 0 
-0.0017479111205 0.39886792968 0.0017479111205 0 -1 0 -0.0052880434447 -1.006468957 0.0084409283367 
0 0.39872827304 0 0 0.38755395842 -0.0050852537353 -8.0938774001e-06 0.39894161244 0 
-0.0008064506435 -0.99196076729 0.011645257734 0 -0.9721303155 0 1.3774428291e-14 -1.0069674211 0.020902263374 
0.0069852072671 -0.97518146925 -0.0026621151977 0.0002436659938 0.41148920957 0.0063921664547 0 -0.66034240237 9.0020998787e-06 
-0.0033082998542 0.13377592098 -0.0033247496929 -0.0046666478446 0.28784143851 -0.0046798590522 -0.0034475634525 -0.97061866319 0.015296391299 
0 -1.0139348422 0.013934842249 0.0067776025484 -1.0310225318 -0.0026051513661 -0.0067776025484 -1.0107819949 -0.011329690883 
0 -1 -8.088568831e-19 0.0014610539288 -0.96504033019 -0.0073217767032 -0.0027311931712 -0.99953231016 -0.0033772704618 
0.00043407114166 -1.0152295393 -0.01351538144 0.0017521974428 -1.0007942276 0.004261372227 0.003430585782 0.26858144658 0.036345321829 
0.033507479586 -1.0363898676 -0.00067931275374 -0.041870913108 -0.95452725751 0.00084886846854 0.011418066286 0.44714508742 0.13056772323 
-0.035841472273 -1.0574246358 -0.02113637998 0.010182988137 -0.9852738893 -0.15273805012 -0.043824938615 -0.20504790302 -0.010421643818 
0.00012723140704 0.41108127166 -0.017584560188 -0.30051151116 -0.0057833580799 -0.016076176408 0.28531218193 -0.76554410377 -0.012426308605 
0.076243950606 -0.45975376378 -0.018207151997 0.0051191987601 -0.81245458111 -0.039508514728 -0.067869210672 -0.34009248821 0.080115883741 
0 -1.0278696845 0 -0.01086481015 -0.99088102156 -0.0014829420972 0.01162165908 -0.23342190751 -0.071885248004 
-0.011711055121 -0.89749240198 0.033706077138 0.056445145142 -0.87102726425 0.039824952966 -0.0078098017735 -0.94496701944 0.058949536217 
-0.076054788487 -0.79470957764 0.066755715261 0.0044523357446 -0.96406018403 0.039814523337 -0.0087076442727 -0.056044594131 0.015743724563 
0.0025478505678 0.10512463899 -0.0016146382376 0.017383607347 0.18535627107 -0.010092439058 0.12102399357 -0.32220045698 -0.0013235277117 
-0.0040519718102 -1.0265604486 0.080352346518 -0.011843448631 -1.0112477606 -7.7035060347e-05 -0.00031827913085 -1.0008416938 -0.010697984612 
-0.0069674211245 -0.9721303155 -0.0069674211245 -0.0024337296701 -1.0078006934 -0.0069898570662 0.0037069681493 -0.7674911207 0.21656770496 