# vtk DataFile Version 5.1
Generated by LIGGGHTS
ASCII
DATASET POLYDATA
POINTS 1324 float
-0.135213 0.0556755 -0.143196 -0.138157 0.0693688 -0.142747 -0.118441 0.0933783 -0.142853 
-0.140408 0.14886 -0.144982 -0.143199 0.0611242 -0.140139 -0.0206641 0.0832092 -0.135452 
-0.0215781 0.119933 -0.138206 -0.105498 0.148215 -0.140377 -0.0705859 0.150855 -0.140106 
-0.00211997 0.160599 -0.137103 -0.120016 0.0601134 -0.134288 -0.0832732 0.0623338 -0.131371 
-0.00285902 0.0651133 -0.128481 -0.130932 0.0791267 -0.133585 -0.0112035 0.0842014 -0.13216 
-0.102022 0.101448 -0.132266 -0.142014 0.162459 -0.133744 -0.134187 0.0587872 -0.127395 
-0.120106 0.0571951 -0.120699 -0.0375604 0.0820627 -0.126736 -0.0282869 0.104972 -0.12266 
-0.0230306 0.149047 -0.124703 -0.129794 0.0614483 -0.118794 -0.138136 0.0780162 -0.117337 
-0.0404234 0.0880589 -0.112937 -0.144409 0.0927044 -0.112679 -0.0324054 0.100744 -0.114613 
-0.0568547 0.131729 -0.119123 -0.0861162 0.148435 -0.113275 -0.144661 0.060599 -0.108997 
-0.101734 0.0635961 -0.105111 -0.0740113 0.0707742 -0.10877 -0.0563934 0.0907056 -0.10924 
-0.13207 0.100946 -0.111491 -0.072848 0.14394 -0.111008 -0.0597995 0.165632 -0.110176 
-0.0298069 0.0630872 -0.0957606 -0.140685 0.0731938 -0.0936064 -0.0298422 0.115667 -0.0932316 
-0.144057 0.0634235 -0.0842429 -0.0556552 0.0870212 -0.0829103 -0.0386984 0.0600465 -0.0772132 
-0.105079 0.0965151 -0.0803249 -0.0276623 0.147424 -0.0798849 -0.0741452 0.177594 -0.0796368 
-0.119292 0.199148 -0.0799223 -0.016899 0.0590164 -0.0731025 -0.00162477 0.0551689 -0.06781 
-0.109316 0.0728805 -0.0750222 -0.1303 0.123994 -0.0708225 -0.00330925 0.0835313 -0.0619307 
-0.0426481 0.107224 -0.0621139 -0.0976767 0.128126 -0.062817 -0.0343865 0.145041 -0.0628653 
-0.0757388 0.0640029 -0.0589837 -0.0688754 0.0624964 -0.044147 -0.0304969 0.07109 -0.0393099 
-0.123885 0.0793841 -0.0372351 -0.0141056 0.0822001 -0.0410447 -0.132079 0.113104 -0.0434484 
-0.0297358 0.146186 -0.0371443 -0.0600406 0.0833878 -0.0235379 -0.0240518 0.102189 -0.0256739 
-0.0307298 0.158938 -0.0284484 -0.125335 0.0573828 -0.0159842 -0.102761 0.0619306 -0.0206654 
-0.00816988 0.089107 -0.0194103 -0.131404 0.165254 -0.0195583 -0.056798 0.16272 -0.0146276 
-0.136005 0.0570647 -0.0150374 -0.0357918 0.0666291 -0.0118725 -0.105109 0.0867933 -0.0111079 
-0.133961 0.0677321 -0.00450373 -0.0907111 0.0623991 -0.00589984 -0.131566 0.0864223 -0.00669577 
-0.122996 0.19914 -0.0836302 -0.122997 0.19916 -0.0799245 -0.119291 0.199127 -0.083628 
-0.0190407 0.0555637 0.005154 -0.139256 0.0637839 0.00404261 -0.0369784 0.073847 0.000901518 
-0.00284528 0.079924 0.00157302 -0.0723719 0.110532 0.00422587 -0.030205 0.0556848 0.00852236 
-0.0157854 0.0701786 0.012902 -0.118745 0.0892086 0.00983746 -0.0100909 0.0848819 0.0132979 
-0.0430782 0.104615 0.0134732 -0.114746 0.0677951 0.0185528 -0.144363 0.0739494 0.0188519 
-0.123086 0.0789863 0.0167252 -0.0125613 0.0982419 0.0192455 -0.110652 0.0560063 0.026203 
-0.132131 0.0696065 0.0258935 -0.131376 0.0971539 0.025203 -0.105068 0.169353 0.0299655 
-0.120737 0.0879966 0.0349682 -0.104598 0.0957843 0.0308781 -0.0179544 0.081746 0.0449771 
-0.141895 0.0822176 0.0455405 -0.0498339 0.0782961 0.049735 -0.0939401 0.0910451 0.0479916 
-0.00891512 0.0851098 0.0491345 -0.120051 0.114765 0.0514131 -0.00734842 0.133572 0.0508099 
-0.141538 0.154517 0.0511752 -0.0535079 0.0552142 0.0597173 -0.029039 0.061761 0.0594968 
-0.0772581 0.0762371 0.0530546 -0.0958529 0.150473 0.0601557 -0.074253 0.143022 0.0612022 
-0.0577247 0.181789 0.0627288 -0.14233 0.0607782 0.0747599 -0.119923 0.0780223 0.071281 
-0.134204 0.142846 0.0721768 -0.105756 0.152603 0.0726235 -0.0791888 0.191526 0.0786488 
-0.0176469 0.0651084 0.0869433 -0.0725408 0.0910304 0.0851521 -0.0809654 0.0593467 0.0926994 
-0.110947 0.0684148 0.0973856 -0.0443595 0.0705039 0.0947035 -0.139959 0.0781207 0.0930203 
-0.0219635 0.126935 0.0927612 -0.0310209 0.162967 0.0991014 -0.0456108 0.197647 0.0985671 
-0.119348 0.0757762 0.107198 -0.107297 0.100894 0.111861 -0.048592 0.0762262 0.119249 
-0.12825 0.116946 0.124707 -0.108606 0.180155 0.123529 -0.116326 0.111476 0.134458 
-0.129063 0.0615191 0.142086 -0.0027668 0.100299 0.139747 -0.107939 0.124687 0.135498 
-0.0862006 0.0734801 0.142534 -0.0883869 0.214913 -0.143926 -0.0778848 0.214243 -0.144273 
-0.0898805 0.222016 -0.14373 -0.0769214 0.223363 -0.144636 -0.0558311 0.237706 -0.147484 
-0.0405106 0.237714 -0.147486 -0.0788094 0.254919 -0.142456 -0.0904308 0.255952 -0.14329 
-0.0906613 0.266947 -0.145314 -0.0777984 0.267882 -0.14741 -0.05582 0.289376 -0.147282 
-0.0405645 0.289382 -0.147281 -0.138531 0.298712 -0.142763 -0.116141 0.298712 -0.142763 
-0.138531 0.378957 -0.142763 -0.116141 0.378957 -0.142763 -0.127949 0.393171 -0.147208 
-0.0970789 0.393205 -0.147209 -0.0558297 0.238004 -0.132164 -0.0405088 0.238013 -0.132166 
-0.0558462 0.290163 -0.132762 -0.0405255 0.290171 -0.132764 -0.121825 0.361428 -0.130192 
-0.138531 0.298712 -0.120372 -0.116141 0.298712 -0.120372 -0.100387 0.352917 -0.123873 
-0.138531 0.378957 -0.120372 -0.0593453 0.233956 -0.119464 -0.0435935 0.232589 -0.117661 
-0.0963968 0.243523 -0.116509 -0.0771988 0.243632 -0.116509 -0.0422932 0.28652 -0.116382 
-0.0580449 0.287888 -0.118186 -0.096555 0.307311 -0.116367 -0.0773569 0.307421 -0.116367 
-0.0501849 0.308494 -0.115583 -0.0252001 0.308494 -0.115583 -0.113053 0.370745 -0.114291 
-0.128024 0.3941 -0.117396 -0.0970523 0.394136 -0.117397 -0.0500528 0.396919 -0.115451 
-0.0253321 0.396919 -0.115451 -0.11835 0.353115 -0.105228 -0.100486 0.352844 -0.105228 
-0.0454138 0.231254 -0.101909 -0.0611656 0.232622 -0.103713 -0.0963967 0.243425 -0.0973114 
-0.0771988 0.243534 -0.0973112 -0.058305 0.284561 -0.102319 -0.0441134 0.285185 -0.10063 
-0.0955334 0.304682 -0.097414 -0.0781297 0.305352 -0.0974376 -0.0734776 0.309412 -0.100633 
-0.0992586 0.309973 -0.100656 -0.0372615 0.321245 -0.0995993 -0.0488724 0.3368 -0.104397 
-0.0982373 0.394271 -0.100901 -0.0742502 0.394271 -0.100901 -0.0630368 0.387563 -0.0974976 
-0.0390651 0.387563 -0.0974976 -0.0794243 0.287815 -0.0973428 -0.06019 0.289807 -0.0974448 
-0.0537475 0.305262 -0.0916864 -0.0497047 0.308754 -0.0908039 -0.0252001 0.308494 -0.0905981 
-0.0931665 0.342344 -0.0950094 -0.0745985 0.345922 -0.0925287 -0.0794246 0.361477 -0.0973396 
-0.0777379 0.393938 -0.0921711 -0.0500528 0.396919 -0.0907302 -0.0253321 0.396919 -0.0907302 
-0.12347 0.206904 -0.086525 -0.11431 0.209455 -0.0875565 -0.0306727 0.227965 -0.0870544 
-0.0168738 0.227982 -0.0871092 -0.126042 0.23567 -0.0898937 -0.116882 0.238221 -0.0909252 
-0.0306991 0.273781 -0.0862173 -0.0169 0.273798 -0.0862719 -0.0953794 0.287517 -0.0832533 
-0.128998 0.318667 -0.0843588 -0.102018 0.318676 -0.0847185 -0.0953794 0.362001 -0.0832533 
-0.0743855 0.362001 -0.0832533 -0.0683818 0.384095 -0.083717 -0.127532 0.389598 -0.0829552 
-0.103447 0.389576 -0.0832866 -0.122612 0.209518 -0.077365 -0.11345 0.211508 -0.0783934 
-0.125184 0.238284 -0.0807337 -0.116027 0.241396 -0.0817683 -0.0821714 0.288152 -0.078015 
-0.0716515 0.287178 -0.0817867 -0.0586433 0.287814 -0.0765352 -0.0982373 0.307442 -0.0769144 
-0.0742502 0.307442 -0.0769144 -0.000658599 0.324785 -0.0807869 -0.0498104 0.331166 -0.0805451 
-0.0278383 0.324999 -0.0809631 -0.0586436 0.361475 -0.076532 -0.0982373 0.394271 -0.0769144 
-0.0742502 0.394271 -0.0769144 -0.0266115 0.386761 -0.0785948 -0.00320856 0.386838 -0.0784278 
-0.105575 0.21152 -0.0696128 -0.0961628 0.210871 -0.0689205 -0.0305981 0.227244 -0.0732563 
-0.0167991 0.227261 -0.073311 -0.104827 0.241623 -0.0696821 -0.0954144 0.240975 -0.0689898 
-0.0306244 0.27306 -0.072419 -0.0168254 0.273078 -0.0724739 -0.0531955 0.305761 -0.0675059 
-0.0639251 0.324595 -0.0733563 -0.0372615 0.321266 -0.0720191 -0.077666 0.394177 -0.0677851 
-0.0630388 0.387555 -0.0735254 -0.0532799 0.394234 -0.0678571 -0.0390632 0.387555 -0.0735254 
-0.106412 0.21159 -0.0602 -0.105663 0.241693 -0.0602692 -0.0953794 0.287517 -0.0622594 
-0.0743855 0.287517 -0.0622594 -0.0952763 0.308106 -0.0638287 -0.0775816 0.305703 -0.067434 
-0.0698924 0.308106 -0.0638287 -0.0226325 0.312466 -0.0618093 -0.0670514 0.329331 -0.0636032 
-0.0388739 0.329331 -0.0636032 -0.0953794 0.362001 -0.0622594 -0.0743855 0.362001 -0.0622594 
-0.0645447 0.383396 -0.0610964 -0.0413806 0.383396 -0.0610964 -0.0950552 0.396413 -0.0635906 
-0.0701134 0.396413 -0.0635906 -0.0246673 0.391526 -0.0667328 -0.000291579 0.391493 -0.0666055 
-0.0969994 0.210941 -0.0595077 -0.0962509 0.241044 -0.059577 -0.128638 0.31869 -0.0573785 
-0.101658 0.318699 -0.0577384 -0.0280146 0.325159 -0.0537833 -0.00397796 0.32797 -0.0597167 
-0.127211 0.3896 -0.0588924 -0.10313 0.389566 -0.0591839 -0.0267571 0.386691 -0.055196 
-0.00334141 0.386765 -0.0550251 -0.0949506 0.206218 -0.0464026 -0.0860341 0.206817 -0.0458766 
-0.09553 0.233945 -0.0469618 -0.0866131 0.234546 -0.0464358 -0.044443 0.266673 -0.0457412 
-0.0960649 0.234528 -0.0380452 -0.115444 0.293719 -0.0437953 -0.0932531 0.293719 -0.0437953 
-0.0644716 0.290357 -0.038923 -0.0422804 0.290609 -0.0388796 -0.0952763 0.308132 -0.0384438 
-0.0698924 0.308132 -0.0384438 -0.139975 0.309648 -0.0431841 -0.11519 0.309648 -0.0431841 
-0.0259124 0.315534 -0.0413377 -0.0427918 0.332886 -0.0438969 -0.0647046 0.369872 -0.0388797 
-0.0425136 0.369937 -0.0389231 -0.115444 0.373141 -0.0437953 -0.0932531 0.373141 -0.0437953 
-0.0645447 0.383396 -0.0379324 -0.0413806 0.383396 -0.0379324 -0.139824 0.396789 -0.0430323 
-0.115341 0.396789 -0.0430323 -0.0950513 0.396412 -0.0386529 -0.0701173 0.396412 -0.0386529 
-0.0247917 0.391501 -0.0423527 -0.000408928 0.391477 -0.042227 -0.0954857 0.206799 -0.0374858 
-0.0865692 0.2074 -0.0369599 -0.087148 0.235128 -0.0375191 -0.0594298 0.285234 -0.0303577 
-0.0382364 0.285234 -0.0303577 -0.0287244 0.319607 -0.035894 -0.0670514 0.329331 -0.0354256 
-0.0388739 0.329331 -0.0354256 -0.0594298 0.360541 -0.0303577 -0.0382364 0.360541 -0.0303577 
-0.0149611 0.20357 -0.0285622 -0.0150473 0.227797 -0.0284092 -0.0444865 0.264374 -0.0259481 
[...]
POINT_DATA 1324
FIELD FieldData 8
id 1 1324 int
3781 3801 3749 3970 3894 3730 3789 3994 3744 
3858 3745 2648 3927 2739 3985 3917 3359 3023 
2755 2901 3952 3937 3738 3785 3852 3823 3296 
3981 3180 3024 3931 3966 3685 3908 3932 3808 
3844 3586 3773 3360 3877 3960 3135 3244 3830 
5055 3961 3805 3716 3896 3943 3242 3939 3903 
3731 3918 3714 3727 3757 3920 3879 3938 3814 
2484 3885 3853 3787 3815 3873 3182 3975 3831 
3971 3746 3297 5050 5051 5054 3919 3925 3786 
3820 2961 3962 3847 3906 3782 3954 3720 3688 
2902 2482 3836 3982 3825 3988 3803 3950 3940 
3854 3788 3775 3587 3955 3719 3909 3406 3747 
3911 3686 3996 3765 3760 3631 3910 2823 3761 
3871 3968 3768 3863 2550 3864 3325 2509 3997 
3721 3941 3136 3776 3632 3875 3689 3969 3956 
3729 4866 4870 4867 4871 4794 4798 4872 4868 
4869 4865 4796 4800 4442 4446 4444 4448 4018 
4022 4795 4799 4797 4793 4020 4443 4447 4024 
4445 4786 4790 4690 4694 4792 4788 4692 4696 
4226 4230 4441 4019 4023 4228 4232 4021 4017 
4791 4787 4691 4695 4789 4785 4693 4689 4334 
4330 4046 4042 4332 4336 4044 4048 4602 4606 
4286 4227 4231 4605 4608 4604 4284 4229 4225 
4922 4926 4850 4854 4924 4928 4852 4856 4594 
4084 4088 4596 4600 4288 4086 4090 4923 4927 
4925 4921 4598 4603 4607 4331 4335 4062 4043 
4058 4601 4333 4329 4060 4064 4914 4918 4851 
4855 4916 4920 4853 4849 4287 4282 4047 4285 
4045 4281 4041 4915 4917 4595 4599 4194 4283 
4198 4138 4026 4030 4597 4593 4028 4032 4196 
4200 4140 4144 4919 4913 4085 4089 4059 4063 
4087 4091 4061 4057 4938 4942 4940 4944 4658 
4941 4475 4479 4483 4487 4195 4199 4258 4262 
4139 4660 4485 4474 4477 4481 4029 4025 4260 
4264 4197 4193 4141 4137 4939 4943 4937 4578 
4582 4092 4027 4031 4580 4584 4954 4956 4659 
4096 4661 4094 4074 4955 4957 4476 4480 4259 
4263 4076 4478 4482 4078 4095 4261 4257 4579 
4583 4093 4581 4577 4080 5049 5056 5052 5053 
4882 4075 4073 4082 4884 4362 4366 4077 4364 
4368 4079 4083 4883 4885 4346 4350 4081 4348 
4352 4674 4678 4162 4166 4676 4680 4164 4168 
4484 4488 4363 4367 4314 4318 4486 4473 4365 
4361 4012 4316 4320 4962 4966 4964 4968 4634 
4638 4347 4351 4354 4636 4270 4640 4268 4349 
4008 4345 4356 4152 4963 4967 4965 4961 4675 
4679 4498 4146 4150 4163 4167 4266 4034 4677 
4673 4038 4036 4040 4148 4165 4161 4272 4730 
4734 4355 4115 4736 4119 4732 4637 4035 4004 
4269 4002 4121 4068 4072 4117 4770 4774 4639 
4635 4315 4772 4776 4210 4214 4154 4158 4319 
4633 4005 4500 4317 4357 4313 4212 4156 4160 
4216 4731 4735 4530 4499 4534 4234 4238 4066 
4267 4070 4271 4733 4127 4729 4001 4071 4389 
4039 4536 4006 4236 4240 4114 4037 4033 4125 
4149 4265 4538 4387 4391 4159 4147 4151 4123 
4393 4145 4069 4065 4771 4775 4450 4454 4586 
4590 4418 4422 4239 4773 4769 4116 4155 4120 
4067 4452 4456 4124 4532 4592 4128 4501 4420 
4424 4003 4007 4122 4118 4157 4153 4531 4535 
4388 4235 4211 4215 4178 4182 4533 4529 4126 
4113 4237 4296 4233 4180 4184 4213 4209 4539 
4591 4559 4392 4290 4294 4338 4342 4541 4588 
4557 4561 4394 4292 4340 4344 4451 4455 4587 
4506 4510 4555 4611 4419 4423 4395 4399 4453 
4449 4613 4589 4585 4508 4512 4421 4417 4397 
4386 5036 5034 5040 5038 4623 4615 4291 4295 
4179 4183 4724 4390 4293 4289 4181 4177 5037 
5035 5033 5039 4619 4826 4830 4814 4738 4722 
4726 4742 4556 4560 4339 4343 4740 4744 4610 
4617 4050 4728 4396 4558 4562 4341 4337 4052 
4878 4874 4810 4621 4880 4828 4832 4812 4816 
4507 4511 4612 4616 4400 4725 4614 4618 4509 
4505 4398 4385 4875 4879 4831 4827 4624 4876 
4739 4743 4723 4727 4829 4825 4741 4737 4721 
4566 4553 4620 4811 4877 4622 4815 4873 4564 
4568 4813 4809 4563 4567 4609 4051 4055 4565 
4554 4053 3899 3849 3161 3818 3405 3838 3945 
3811 3784 3440 3876 3972 3934 3755 3762 3860 
3778 3025 2591 3900 2481 3717 3957 3978 3964 
3856 3806 3741 2927 2989 3922 3711 3867 3723 
3888 3869 2483 3441 3737 3850 3614 3797 3324 
3851 3819 3809 3712 3162 3766 3890 3771 2751 
3691 3665 3914 3208 3812 2962 3758 2824 3840 
3991 2690 3791 3946 2748 3770 3889 3732 3995 
3442 2749 3668 3779 3764 3828 3870 5042 5046 
3718 3777 3263 5043 5047 3385 3774 3916 3692 
3763 3999 3913 3993 3979 3974 3923 2963 2790 
3924 3998 3772 3667 3857 2928 3947 3750 3613 
3739 3810 3790 3715 3892 3935 3751 3835 3443 
3461 3298 3861 3846 3733 3958 3833 3902 3936 
3754 2753 3872 3977 3926 3725 3930 3326 2868 
3798 3792 3883 3444 3693 3843 3848 4898 4902 
4904 4900 4714 4718 4716 4720 4899 4903 4897 
4901 4994 4998 4996 5000 4834 4838 4715 4719 
4840 4836 4626 4630 4717 4713 4628 4632 4995 
4999 4997 4993 4515 4519 4517 4521 4835 4839 
4833 4837 4402 4406 4404 4408 4972 4976 4974 
4978 4627 4631 4629 4625 4973 4977 4975 4979 
4698 4702 4523 4527 4516 4520 4700 4704 4525 
4514 4518 4522 4403 4407 4405 4401 4980 4984 
4982 4986 4426 4430 4428 4432 4981 4985 4983 
4987 4754 4758 4699 4703 4524 4528 4756 4760 
4701 4697 4526 4513 4142 4298 5010 5014 5012 
5016 4755 4759 4762 4766 4490 4494 4427 4431 
4370 4753 4302 4757 4374 4764 4768 4492 4496 
4429 4425 4372 4376 4300 4304 5011 5015 5013 
5009 4890 4894 4892 4896 4491 4495 4202 4206 
4493 4489 4204 4208 4946 4950 4891 4895 4948 
4763 4767 4893 4889 4662 4686 4682 4550 4546 
4458 4299 4684 4552 4548 4460 4988 4992 4952 
4761 4462 4371 4375 4765 4303 4143 4688 4664 
4464 4373 4369 4301 4297 4947 4951 4989 4971 
4990 4970 4949 4945 4666 4670 4463 4459 4203 
4207 4668 4672 4457 4461 4205 4201 4958 4953 
4969 4960 4991 4663 4683 4687 4646 4642 4547 
4551 4685 4657 4681 4648 4644 4549 4545 4959 
4862 4864 4860 4667 4671 4669 4665 5044 5048 
4858 5045 5041 4859 4863 4861 4857 4647 4643 
4641 4645 5002 5006 4886 5004 5008 4888 5003 
5007 4887 5005 5001 4802 4806 4881 4808 4804 
4650 4654 4652 4656 4010 4306 4310 4014 4308 
4312 4803 4807 4746 4750 4382 4805 4801 4378 
4651 4655 4748 4752 4384 4653 4649 4380 4358 
4360 4016 4192 4747 4751 4706 4710 4502 4749 
4745 4540 4186 4708 4712 4379 4383 4307 4190 
4311 4247 4243 4381 4377 4013 4009 4188 4309 
4305 4245 4249 4707 4711 4103 4709 4504 4185 
4353 4101 4015 4105 4503 4705 4011 4542 4410 
4414 4187 4191 4359 4544 4099 4412 4416 4324 
4328 4189 4322 4326 4248 4244 4100 4104 4102 
4106 4246 4250 4910 4906 4908 4912 4434 4438 
4497 4436 4440 5025 5032 5028 5029 5031 5026 
5027 5030 4907 4911 4543 4909 4905 4411 4415 
4255 4130 4134 4537 4413 4409 4132 4136 4325 
4321 4253 4242 4218 4222 4323 4327 4433 4220 
4224 5022 5019 5023 5018 5017 5024 5020 5021 
4842 4846 4818 4822 4820 4824 4435 4439 4251 
4170 4174 4437 4172 4176 4844 4848 4466 4470 
4054 4276 4468 4472 4056 4930 4934 4843 4847 
4932 4936 4819 4823 4782 4821 4817 4274 4278 
4570 4574 4219 4223 4252 4256 4131 4135 4107 
4111 4572 4576 4280 4133 4129 4109 4098 4221 
4217 4254 4241 4931 4935 4933 4929 4778 4845 
4841 4784 4780 4171 4175 4277 4173 4169 4779 
4783 4777 4275 4279 4781 4571 4575 4467 4471 
4108 4112 4573 4569 4273 4469 4465 4049 4110 
4097 
type 1 1324 int
2 2 2 2 2 2 2 2 2 
2 2 2 2 2 2 2 2 2 
2 2 2 2 2 2 2 2 2 
2 2 2 2 2 2 2 2 2 
2 2 2 2 2 2 2 2 2 
2 2 2 2 2 2 2 2 2 
2 2 2 2 2 2 2 2 2 
2 2 2 2 2 2 2 2 2 
2 2 2 2 2 2 2 2 2 
2 2 2 2 2 2 2 2 2 
2 2 2 2 2 2 2 2 2 
2 2 2 2 2 2 2 2 2 
2 2 2 2 2 2 2 2 2 
2 2 2 2 2 2 2 2 2 
2 2 2 2 2 2 2 2 2 
2 2 2 2 2 2 2 2 2 
2 2 2 2 2 2 2 2 2 
2 2 2 2 2 2 2 2 2 
2 2 2 2 2 2 2 2 2 
2 2 2 2 2 2 2 2 2 
2 2 2 2 2 2 2 2 2 
2 2 2 2 2 2 2 2 2 
2 2 2 2 2 2 2 2 2 
2 2 2 2 2 2 2 2 2 
2 2 2 2 2 2 2 2 2 
2 2 2 2 2 2 2 2 2 
2 2 2 2 2 2 2 2 2 
2 2 2 2 2 2 2 2 2 
2 2 2 2 2 2 2 2 2 
2 2 2 2 2 2 2 2 2 
2 2 2 2 2 2 2 2 2 
2 2 2 2 2 2 2 2 2 
2 2 2 2 2 2 2 2 2 
2 2 2 2 2 2 2 2 2 
2 2 2 2 2 2 2 2 2 
2 2 2 2 2 2 2 2 2 
2 2 2 2 2 2 2 2 2 
2 2 2 2 2 2 2 2 2 
2 2 2 2 2 2 2 2 2 
2 2 2 2 2 2 2 2 2 
2 2 2 2 2 2 2 2 2 
2 2 2 2 2 2 2 2 2 
2 2 2 2 2 2 2 2 2 
2 2 2 2 2 2 2 2 2 
2 2 2 2 2 2 2 2 2 
2 2 2 2 2 2 2 2 2 
2 2 2 2 2 2 2 2 2 
2 2 2 2 2 2 2 2 2 
2 2 2 2 2 2 2 2 2 
2 2 2 2 2 2 2 2 2 
2 2 2 2 2 2 2 2 2 
2 2 2 2 2 2 2 2 2 
2 2 2 2 2 2 2 2 2 
2 2 2 2 2 2 2 2 2 
2 2 2 2 2 2 2 2 2 
2 2 2 2 2 2 2 2 2 
2 2 2 2 2 2 2 2 2 
2 2 2 2 2 2 2 2 2 
2 2 2 2 2 2 2 2 2 
2 2 2 2 2 2 2 2 2 
2 2 2 2 2 2 2 2 2 
2 2 2 2 2 2 2 2 2 
2 2 2 2 2 2 2 2 2 
2 2 2 2 2 2 2 2 2 
2 2 2 2 2 2 2 2 2 
2 2 2 2 2 2 2 2 2 
2 2 2 2 2 2 2 2 2 
2 2 2 2 2 2 2 2 2 
2 2 2 2 2 2 2 2 2 
2 2 2 2 2 2 2 2 2 
2 2 2 2 2 2 2 2 2 
2 2 2 2 2 2 2 2 2 
2 2 2 2 2 2 2 2 2 
2 2 2 2 2 2 2 2 2 
2 2 2 2 2 2 2 2 2 
2 2 2 2 2 2 2 2 2 
2 2 2 2 2 2 2 2 2 
2 2 2 2 2 2 2 2 2 
2 2 2 2 2 2 2 2 2 
2 2 2 2 2 2 2 2 2 
2 2 2 2 2 2 2 2 2 
2 2 2 2 2 2 2 2 2 
2 2 2 2 2 2 2 2 2 
2 2 2 2 2 2 2 2 2 
2 2 2 2 2 2 2 2 2 
2 2 2 2 2 2 2 2 2 
2 2 2 2 2 2 2 2 2 
2 2 2 2 2 2 2 2 2 
2 2 2 2 2 2 2 2 2 
2 2 2 2 2 2 2 2 2 
2 2 2 2 2 2 2 2 2 
2 2 2 2 2 2 2 2 2 
2 2 2 2 2 2 2 2 2 
2 2 2 2 2 2 2 2 2 
2 2 2 2 2 2 2 2 2 
2 2 2 2 2 2 2 2 2 
2 2 2 2 2 2 2 2 2 
2 2 2 2 2 2 2 2 2 
2 2 2 2 2 2 2 2 2 
2 2 2 2 2 2 2 2 2 
2 2 2 2 2 2 2 2 2 
2 2 2 2 2 2 2 2 2 
2 2 2 2 2 2 2 2 2 
2 2 2 2 2 2 2 2 2 
2 2 2 2 2 2 2 2 2 
2 2 2 2 2 2 2 2 2 
2 2 2 2 2 2 2 2 2 
2 2 2 2 2 2 2 2 2 
2 2 2 2 2 2 2 2 2 
2 2 2 2 2 2 2 2 2 
2 2 2 2 2 2 2 2 2 
2 2 2 2 2 2 2 2 2 
2 2 2 2 2 2 2 2 2 
2 2 2 2 2 2 2 2 2 
2 2 2 2 2 2 2 2 2 
2 2 2 2 2 2 2 2 2 
2 2 2 2 2 2 2 2 2 
2 2 2 2 2 2 2 2 2 
2 2 2 2 2 2 2 2 2 
2 2 2 2 2 2 2 2 2 
2 2 2 2 2 2 2 2 2 
2 2 2 2 2 2 2 2 2 
2 2 2 2 2 2 2 2 2 
2 2 2 2 2 2 2 2 2 
2 2 2 2 2 2 2 2 2 
2 2 2 2 2 2 2 2 2 
2 2 2 2 2 2 2 2 2 
2 2 2 2 2 2 2 2 2 
2 2 2 2 2 2 2 2 2 
2 2 2 2 2 2 2 2 2 
2 2 2 2 2 2 2 2 2 
2 2 2 2 2 2 2 2 2 
2 2 2 2 2 2 2 2 2 
2 2 2 2 2 2 2 2 2 
2 2 2 2 2 2 2 2 2 
2 2 2 2 2 2 2 2 2 
2 2 2 2 2 2 2 2 2 
2 2 2 2 2 2 2 2 2 
2 2 2 2 2 2 2 2 2 
2 2 2 2 2 2 2 2 2 
2 2 2 2 2 2 2 2 2 
2 2 2 2 2 2 2 2 2 
2 2 2 2 2 2 2 2 2 
2 2 2 2 2 2 2 2 2 
2 2 2 2 2 2 2 2 2 
2 2 2 2 2 2 2 2 2 
2 2 2 2 2 2 2 2 2 
2 
i 3 1324 int
0 0 0 0 0 0 0 0 0 
0 0 0 0 0 0 0 0 0 
0 0 0 0 0 0 0 0 0 
0 0 0 0 0 0 0 0 0 
0 0 0 0 0 0 0 0 0 
0 0 0 0 0 0 0 0 0 
0 0 0 0 0 0 0 0 0 
0 0 0 0 0 0 0 0 0 
0 0 0 0 0 0 0 0 0 
0 0 0 0 0 0 0 0 0 
0 0 0 0 0 0 0 0 0 
0 0 0 0 0 0 0 0 0 
0 0 0 0 0 0 0 0 0 
0 0 0 0 0 0 0 0 0 
0 0 0 0 0 0 0 0 0 
0 0 0 0 0 0 0 0 0 
0 0 0 0 0 0 0 0 0 
0 0 0 0 0 0 0 0 0 
0 0 0 0 0 0 0 0 0 
0 0 0 0 0 0 0 0 0 
0 0 0 0 0 0 0 0 0 
0 0 0 0 0 0 0 0 0 
0 0 0 0 0 0 0 0 0 
0 0 0 0 0 0 0 0 0 
0 0 0 0 0 0 0 0 0 
0 0 0 0 0 0 0 0 0 
0 0 0 0 0 0 0 0 0 
0 0 0 0 0 0 0 0 0 
0 0 0 0 0 0 0 0 0 
0 0 0 0 0 0 0 0 0 
0 0 0 0 0 0 0 0 0 
0 0 0 0 0 0 0 0 0 
0 0 0 0 0 0 0 0 0 
0 0 0 0 0 0 0 0 0 
0 0 0 0 0 0 0 0 0 
0 0 0 0 0 0 0 0 0 
0 0 0 0 0 0 0 0 0 
0 0 0 0 0 0 0 0 0 
0 0 0 0 0 0 0 0 0 
0 0 0 0 0 0 0 0 0 
0 0 0 0 0 0 0 0 0 
0 0 0 0 0 0 0 0 0 
0 0 0 0 0 0 0 0 0 
0 0 0 0 0 0 0 0 0 
0 0 0 0 0 0 0 0 0 
0 0 0 0 0 0 0 0 0 
0 0 0 0 0 0 0 0 0 
0 0 0 0 0 0 0 0 0 
0 0 0 0 0 0 0 0 0 
0 0 0 0 0 0 0 0 0 
0 0 0 0 0 0 0 0 0 
0 0 0 0 0 0 0 0 0 
0 0 0 0 0 0 0 0 0 
0 0 0 0 0 0 0 0 0 
0 0 0 0 0 0 0 0 0 
0 0 0 0 0 0 0 0 0 
0 0 0 0 0 0 0 0 0 
0 0 0 0 0 0 0 0 0 
0 0 0 0 0 0 0 0 0 
0 0 0 0 0 0 0 0 0 
0 0 0 0 0 0 0 0 0 
0 0 0 0 0 0 0 0 0 
0 0 0 0 0 0 0 0 0 
0 0 0 0 0 0 0 0 0 
0 0 0 0 0 0 0 0 0 
0 0 0 0 0 0 0 0 0 
0 0 0 0 0 0 0 0 0 
0 0 0 0 0 0 0 0 0 
0 0 0 0 0 0 0 0 0 
0 0 0 0 0 0 0 0 0 
0 0 0 0 0 0 0 0 0 
0 0 0 0 0 0 0 0 0 
0 0 0 0 0 0 0 0 0 
0 0 0 0 0 0 0 0 0 
0 0 0 0 0 0 0 0 0 
0 0 0 0 0 0 0 0 0 
0 0 0 0 0 0 0 0 0 
0 0 0 0 0 0 0 0 0 
0 0 0 0 0 0 0 0 0 
0 0 0 0 0 0 0 0 0 
0 0 0 0 0 0 0 0 0 
0 0 0 0 0 0 0 0 0 
0 0 0 0 0 0 0 0 0 
0 0 0 0 0 0 0 0 0 
0 0 0 0 0 0 0 0 0 
0 0 0 0 0 0 0 0 0 
0 0 0 0 0 0 0 0 0 
0 0 0 0 0 0 0 0 0 
0 0 0 0 0 0 0 0 0 
0 0 0 0 0 0 0 0 0 
0 0 0 0 0 0 0 0 0 
0 0 0 0 0 0 0 0 0 
0 0 0 0 0 0 0 0 0 
0 0 0 0 0 0 0 0 0 
0 0 0 0 0 0 0 0 0 
0 0 0 0 0 0 0 0 0 
0 0 0 0 0 0 0 0 0 
0 0 0 0 0 0 0 0 0 
0 0 0 0 0 0 0 0 0 
0 0 0 0 0 0 0 0 0 
0 0 0 0 0 0 0 0 0 
0 0 0 0 0 0 0 0 0 
0 0 0 0 0 0 0 0 0 
0 0 0 0 0 0 0 0 0 
0 0 0 0 0 0 0 0 0 
0 0 0 0 0 0 0 0 0 
0 0 0 0 0 0 0 0 0 
0 0 0 0 0 0 0 0 0 
0 0 0 0 0 0 0 0 0 
0 0 0 0 0 0 0 0 0 
0 0 0 0 0 0 0 0 0 
0 0 0 0 0 0 0 0 0 
0 0 0 0 0 0 0 0 0 
0 0 0 0 0 0 0 0 0 
0 0 0 0 0 0 0 0 0 
0 0 0 0 0 0 0 0 0 
0 0 0 0 0 0 0 0 0 
0 0 0 0 0 0 0 0 0 
0 0 0 0 0 0 0 0 0 
0 0 0 0 0 0 0 0 0 
0 0 0 0 0 0 0 0 0 
0 0 0 0 0 0 0 0 0 
0 0 0 0 0 0 0 0 0 
0 0 0 0 0 0 0 0 0 
0 0 0 0 0 0 0 0 0 
0 0 0 0 0 0 0 0 0 
0 0 0 0 0 0 0 0 0 
0 0 0 0 0 0 0 0 0 
0 0 0 0 0 0 0 0 0 
0 0 0 0 0 0 0 0 0 
0 0 0 0 0 0 0 0 0 
0 0 0 0 0 0 0 0 0 
0 0 0 0 0 0 0 0 0 
0 0 0 0 0 0 0 0 0 
0 0 0 0 0 0 0 0 0 
0 0 0 0 0 0 0 0 0 
0 0 0 0 0 0 0 0 0 
0 0 0 0 0 0 0 0 0 
0 0 0 0 0 0 0 0 0 
0 0 0 0 0 0 0 0 0 
0 0 0 0 0 0 0 0 0 
0 0 0 0 0 0 0 0 0 
0 0 0 0 0 0 0 0 0 
0 0 0 0 0 0 0 0 0 
0 0 0 0 0 0 0 0 0 
0 0 0 0 0 0 0 0 0 
0 0 0 0 0 0 0 0 0 
0 0 0 0 0 0 0 0 0 
0 0 0 0 0 0 0 0 0 
0 0 0 0 0 0 0 0 0 
0 0 0 0 0 0 0 0 0 
0 0 0 0 0 0 0 0 0 
0 0 0 0 0 0 0 0 0 
0 0 0 0 0 0 0 0 0 
0 0 0 0 0 0 0 0 0 
0 0 0 0 0 0 0 0 0 
0 0 0 0 0 0 0 0 0 
0 0 0 0 0 0 0 0 0 
0 0 0 0 0 0 0 0 0 
0 0 0 0 0 0 0 0 0 
0 0 0 0 0 0 0 0 0 
0 0 0 0 0 0 0 0 0 
0 0 0 0 0 0 0 0 0 
0 0 0 0 0 0 0 0 0 
0 0 0 0 0 0 0 0 0 
0 0 0 0 0 0 0 0 0 
0 0 0 0 0 0 0 0 0 
0 0 0 0 0 0 0 0 0 
0 0 0 0 0 0 0 0 0 
0 0 0 0 0 0 0 0 0 
0 0 0 0 0 0 0 0 0 
0 0 0 0 0 0 0 0 0 
0 0 0 0 0 0 0 0 0 
0 0 0 0 0 0 0 0 0 
0 0 0 0 0 0 0 0 0 
0 0 0 0 0 0 0 0 0 
0 0 0 0 0 0 0 0 0 
0 0 0 0 0 0 0 0 0 
0 0 0 0 0 0 0 0 0 
0 0 0 0 0 0 0 0 0 
0 0 0 0 0 0 0 0 0 
0 0 0 0 0 0 0 0 0 
0 0 0 0 0 0 0 0 0 
0 0 0 0 0 0 0 0 0 
0 0 0 0 0 0 0 0 0 
0 0 0 0 0 0 0 0 0 
0 0 0 0 0 0 0 0 0 
0 0 0 0 0 0 0 0 0 
0 0 0 0 0 0 0 0 0 
0 0 0 0 0 0 0 0 0 
0 0 0 0 0 0 0 0 0 
0 0 0 0 0 0 0 0 0 
0 0 0 0 0 0 0 0 0 
0 0 0 0 0 0 0 0 0 
0 0 0 0 0 0 0 0 0 
0 0 0 0 0 0 0 0 0 
0 0 0 0 0 0 0 0 0 
0 0 0 0 0 0 0 0 0 
0 0 0 0 0 0 0 0 0 
0 0 0 0 0 0 0 0 0 
0 0 0 0 0 0 0 0 0 
0 0 0 0 0 0 0 0 0 
0 0 0 0 0 0 0 0 0 
0 0 0 0 0 0 0 0 0 
0 0 0 0 0 0 0 0 0 
0 0 0 0 0 0 0 0 0 
0 0 0 0 0 0 0 0 0 
0 0 0 0 0 0 0 0 0 
0 0 0 0 0 0 0 0 0 
0 0 0 0 0 0 0 0 0 
0 0 0 0 0 0 0 0 0 
0 0 0 0 0 0 0 0 0 
0 0 0 0 0 0 0 0 0 
0 0 0 0 0 0 0 0 0 
0 0 0 0 0 0 0 0 0 
0 0 0 0 0 0 0 0 0 
0 0 0 0 0 0 0 0 0 
0 0 0 0 0 0 0 0 0 
0 0 0 0 0 0 0 0 0 
0 0 0 0 0 0 0 0 0 
0 0 0 0 0 0 0 0 0 
0 0 0 0 0 0 0 0 0 
0 0 0 0 0 0 0 0 0 
0 0 0 0 0 0 0 0 0 
0 0 0 0 0 0 0 0 0 
0 0 0 0 0 0 0 0 0 
0 0 0 0 0 0 0 0 0 
0 0 0 0 0 0 0 0 0 
0 0 0 0 0 0 0 0 0 
0 0 0 0 0 0 0 0 0 
0 0 0 0 0 0 0 0 0 
0 0 0 0 0 0 0 0 0 
0 0 0 0 0 0 0 0 0 
0 0 0 0 0 0 0 0 0 
0 0 0 0 0 0 0 0 0 
0 0 0 0 0 0 0 0 0 
0 0 0 0 0 0 0 0 0 
0 0 0 0 0 0 0 0 0 
0 0 0 0 0 0 0 0 0 
0 0 0 0 0 0 0 0 0 
0 0 0 0 0 0 0 0 0 
0 0 0 0 0 0 0 0 0 
0 0 0 0 0 0 0 0 0 
0 0 0 0 0 0 0 0 0 
0 0 0 0 0 0 0 0 0 
0 0 0 0 0 0 0 0 0 
0 0 0 0 0 0 0 0 0 
0 0 0 0 0 0 0 0 0 
0 0 0 0 0 0 0 0 0 
0 0 0 0 0 0 0 0 0 
0 0 0 0 0 0 0 0 0 
0 0 0 0 0 0 0 0 0 
0 0 0 0 0 0 0 0 0 
0 0 0 0 0 0 0 0 0 
0 0 0 0 0 0 0 0 0 
0 0 0 0 0 0 0 0 0 
0 0 0 0 0 0 0 0 0 
0 0 0 0 0 0 0 0 0 
0 0 0 0 0 0 0 0 0 
0 0 0 0 0 0 0 0 0 
0 0 0 0 0 0 0 0 0 
0 0 0 0 0 0 0 0 0 
0 0 0 0 0 0 0 0 0 
0 0 0 0 0 0 0 0 0 
0 0 0 0 0 0 0 0 0 
0 0 0 0 0 0 0 0 0 
0 0 0 0 0 0 0 0 0 
0 0 0 0 0 0 0 0 0 
0 0 0 0 0 0 0 0 0 
0 0 0 0 0 0 0 0 0 
0 0 0 0 0 0 0 0 0 
0 0 0 0 0 0 0 0 0 
0 0 0 0 0 0 0 0 0 
0 0 0 0 0 0 0 0 0 
0 0 0 0 0 0 0 0 0 
0 0 0 0 0 0 0 0 0 
0 0 0 0 0 0 0 0 0 
0 0 0 0 0 0 0 0 0 
0 0 0 0 0 0 0 0 0 
0 0 0 0 0 0 0 0 0 
0 0 0 0 0 0 0 0 0 
0 0 0 0 0 0 0 0 0 
0 0 0 0 0 0 0 0 0 
0 0 0 0 0 0 0 0 0 
0 0 0 0 0 0 0 0 0 
0 0 0 0 0 0 0 0 0 
0 0 0 0 0 0 0 0 0 
0 0 0 0 0 0 0 0 0 
0 0 0 0 0 0 0 0 0 
0 0 0 0 0 0 0 0 0 
0 0 0 0 0 0 0 0 0 
0 0 0 0 0 0 0 0 0 
0 0 0 0 0 0 0 0 0 
0 0 0 0 0 0 0 0 0 
0 0 0 0 0 0 0 0 0 
0 0 0 0 0 0 0 0 0 
0 0 0 0 0 0 0 0 0 
0 0 0 0 0 0 0 0 0 
0 0 0 0 0 0 0 0 0 
0 0 0 0 0 0 0 0 0 
0 0 0 0 0 0 0 0 0 
0 0 0 0 0 0 0 0 0 
0 0 0 0 0 0 0 0 0 
0 0 0 0 0 0 0 0 0 
0 0 0 0 0 0 0 0 0 
0 0 0 0 0 0 0 0 0 
0 0 0 0 0 0 0 0 0 
0 0 0 0 0 0 0 0 0 
0 0 0 0 0 0 0 0 0 
0 0 0 0 0 0 0 0 0 
0 0 0 0 0 0 0 0 0 
0 0 0 0 0 0 0 0 0 
0 0 0 0 0 0 0 0 0 
0 0 0 0 0 0 0 0 0 
0 0 0 0 0 0 0 0 0 
0 0 0 0 0 0 0 0 0 
0 0 0 0 0 0 0 0 0 
0 0 0 0 0 0 0 0 0 
0 0 0 0 0 0 0 0 0 
0 0 0 0 0 0 0 0 0 
0 0 0 0 0 0 0 0 0 
0 0 0 0 0 0 0 0 0 
0 0 0 0 0 0 0 0 0 
0 0 0 0 0 0 0 0 0 
0 0 0 0 0 0 0 0 0 
0 0 0 0 0 0 0 0 0 
0 0 0 0 0 0 0 0 0 
0 0 0 0 0 0 0 0 0 
0 0 0 0 0 0 0 0 0 
0 0 0 0 0 0 0 0 0 
0 0 0 0 0 0 0 0 0 
0 0 0 0 0 0 0 0 0 
0 0 0 0 0 0 0 0 0 
0 0 0 0 0 0 0 0 0 
0 0 0 0 0 0 0 0 0 
0 0 0 0 0 0 0 0 0 
0 0 0 0 0 0 0 0 0 
0 0 0 0 0 0 0 0 0 
0 0 0 0 0 0 0 0 0 
0 0 0 0 0 0 0 0 0 
0 0 0 0 0 0 0 0 0 
0 0 0 0 0 0 0 0 0 
0 0 0 0 0 0 0 0 0 
0 0 0 0 0 0 0 0 0 
0 0 0 0 0 0 0 0 0 
0 0 0 0 0 0 0 0 0 
0 0 0 0 0 0 0 0 0 
0 0 0 0 0 0 0 0 0 
0 0 0 0 0 0 0 0 0 
0 0 0 0 0 0 0 0 0 
0 0 0 0 0 0 0 0 0 
0 0 0 0 0 0 0 0 0 
0 0 0 0 0 0 0 0 0 
0 0 0 0 0 0 0 0 0 
0 0 0 0 0 0 0 0 0 
0 0 0 0 0 0 0 0 0 
0 0 0 0 0 0 0 0 0 
0 0 0 0 0 0 0 0 0 
0 0 0 0 0 0 0 0 0 
0 0 0 0 0 0 0 0 0 
0 0 0 0 0 0 0 0 0 
0 0 0 0 0 0 0 0 0 
0 0 0 0 0 0 0 0 0 
0 0 0 0 0 0 0 0 0 
0 0 0 0 0 0 0 0 0 
0 0 0 0 0 0 0 0 0 
0 0 0 0 0 0 0 0 0 
0 0 0 0 0 0 0 0 0 
0 0 0 0 0 0 0 0 0 
0 0 0 0 0 0 0 0 0 
0 0 0 0 0 0 0 0 0 
0 0 0 0 0 0 0 0 0 
0 0 0 0 0 0 0 0 0 
0 0 0 0 0 0 0 0 0 
0 0 0 0 0 0 0 0 0 
0 0 0 0 0 0 0 0 0 
0 0 0 0 0 0 0 0 0 
0 0 0 0 0 0 0 0 0 
0 0 0 0 0 0 0 0 0 
0 0 0 0 0 0 0 0 0 
0 0 0 0 0 0 0 0 0 
0 0 0 0 0 0 0 0 0 
0 0 0 0 0 0 0 0 0 
0 0 0 0 0 0 0 0 0 
0 0 0 0 0 0 0 0 0 
0 0 0 0 0 0 0 0 0 
0 0 0 0 0 0 0 0 0 
0 0 0 0 0 0 0 0 0 
0 0 0 0 0 0 0 0 0 
0 0 0 0 0 0 0 0 0 
0 0 0 0 0 0 0 0 0 
0 0 0 0 0 0 0 0 0 
0 0 0 0 0 0 0 0 0 
0 0 0 0 0 0 0 0 0 
0 0 0 0 0 0 0 0 0 
0 0 0 0 0 0 0 0 0 
0 0 0 0 0 0 0 0 0 
0 0 0 0 0 0 0 0 0 
0 0 0 0 0 0 0 0 0 
0 0 0 0 0 0 0 0 0 
0 0 0 0 0 0 0 0 0 
0 0 0 0 0 0 0 0 0 
0 0 0 0 0 0 0 0 0 
0 0 0 0 0 0 0 0 0 
0 0 0 0 0 0 0 0 0 
0 0 0 0 0 0 0 0 0 
0 0 0 0 0 0 0 0 0 
0 0 0 0 0 0 0 0 0 
0 0 0 0 0 0 0 0 0 
0 0 0 0 0 0 0 0 0 
0 0 0 0 0 0 0 0 0 
0 0 0 0 0 0 0 0 0 
0 0 0 0 0 0 0 0 0 
0 0 0 0 0 0 0 0 0 
0 0 0 0 0 0 0 0 0 
0 0 0 0 0 0 0 0 0 
0 0 0 0 0 0 0 0 0 
0 0 0 0 0 0 0 0 0 
0 0 0 0 0 0 0 0 0 
0 0 0 0 0 0 0 0 0 
0 0 0 0 0 0 0 0 0 
0 0 0 0 0 0 0 0 0 
0 0 0 0 0 0 0 0 0 
0 0 0 0 0 0 0 0 0 
0 0 0 0 0 0 0 0 0 
0 0 0 0 0 0 0 0 0 
0 0 0 0 0 0 0 0 0 
0 0 0 0 0 0 0 0 0 
0 0 0 0 0 0 0 0 0 
0 0 0 0 0 0 0 0 0 
0 0 0 0 0 0 0 0 0 
0 0 0 0 0 0 0 0 0 
0 0 0 0 0 0 0 0 0 
0 0 0 0 0 0 0 0 0 
0 0 0 0 0 0 0 0 0 
0 0 0 0 0 0 0 0 0 
0 0 0 0 0 0 0 0 0 
0 0 0 0 0 0 0 0 0 
0 0 0 0 0 0 0 0 0 
0 0 0 0 0 0 0 0 0 
0 0 0 0 0 0 0 0 0 
0 0 0 
v 3 1324 double
0.011712751963 -0.0037290385148 -0.0011384930739 0.010048934566 -0.00070430313784 0.0034683114765 -0.15472652587 0.054371164332 0.017807489663 
-0.00080340767465 0.032226313364 0.019562144673 -0.0021269421767 0.002177643116 -0.026760055041 -0.029080006669 0.04353332093 0.035337047209 
-0.084222972431 0.081829535961 -0.0015657430505 -0.015970077835 0.15166809512 0.0078683031147 0.0084999301845 0.1323890659 0.0081926522313 
-0.015444081516 0.16804910789 -0.083079636091 -0.0056303209371 0.0085283445581 0.016039859049 -0.027173646627 0.011902077028 0.021408443641 
-0.01040054753 0.0058004044742 0.04555054737 0.0086390268809 0.038845535794 -0.0015567670795 -0.13682818698 -0.005875656102 -0.051000097522 
-0.078830096885 0.05744859893 0.00019912973901 -0.056515204009 0.17504659774 -0.013208176053 0.056732275107 -0.039185307936 -0.0066811744503 
-0.017899220674 0.018956035487 -0.014433201323 0.019798951085 0.040401127349 0.0076420378047 -0.044434665916 0.065448016104 0.0037896545826 
0.00042695319134 0.13846042764 0.029105660503 0.00030317957686 0.049567823366 -0.018354212932 0.060759685238 0.03755201171 -0.010385692456 
-0.024108631974 0.052866387327 -0.0092589620461 -0.034900538576 0.00011741016464 0.0088745339976 -0.016206535147 0.05090939009 0.043997024311 
0.096087284017 0.12261288527 -0.004294039915 -0.034606769077 0.14722991151 -0.037268245218 -0.040629181533 0.011950981917 0.025322700445 
-0.055110835015 0.016838623604 0.044337729087 -0.1632132347 0.016458060305 -0.098071338305 0.017418324533 0.057616216922 -0.030352324845 
-0.0028608687616 0.066370333775 -0.00082771263609 0.025682621464 0.12898695416 -0.071542077916 -0.013011560337 0.21057775716 -0.067361238852 
-0.023837693753 0.013424326694 0.030482934101 0.050689496961 0.0092180211168 0.0061001687398 -0.046543241901 0.073906791384 0.057776194531 