# vtk DataFile Version 5.1
Generated by LIGGGHTS
ASCII
DATASET POLYDATA
POINTS 421 float
-0.139288 0.0561871 -0.144625 -0.142981 0.0697069 -0.144412 -0.0978321 0.0754145 -0.144154 
-0.10112 0.0866441 -0.144213 -0.0746659 0.0873085 -0.144039 -0.0501511 0.118362 -0.144227 
-0.117313 0.0560198 -0.141987 -0.0702299 0.0566208 -0.141647 -0.0232355 0.0825859 -0.138673 
-0.144892 0.0583031 -0.134721 -0.135079 0.0604809 -0.132838 -0.126572 0.0590118 -0.12764 
-0.113252 0.0613529 -0.133007 -0.0470639 0.0626702 -0.130404 -0.133847 0.0766078 -0.132185 
-0.0641838 0.0738725 -0.132362 -0.0313935 0.0733249 -0.129107 -0.0221738 0.103921 -0.134683 
-0.127336 0.142034 -0.131567 -0.142613 0.0554274 -0.120177 -0.114624 0.0596622 -0.121943 
-0.0752806 0.0555135 -0.126393 -0.0384768 0.0683029 -0.121479 -0.116683 0.0782887 -0.125765 
-0.00750141 0.0801919 -0.120964 -0.106143 0.0957709 -0.121409 -0.0234307 0.119317 -0.124556 
-0.102977 0.0728746 -0.117061 0.000216093 0.0901872 -0.116095 -0.0650678 0.118132 -0.115031 
-0.0183648 0.0566435 -0.110392 -0.00468486 0.0580697 -0.113888 -0.0288513 0.0626831 -0.108493 
-0.00831167 0.0678844 -0.104797 -0.0512447 0.0833738 -0.109335 -0.00616406 0.0836256 -0.108667 
-0.0808304 0.0898345 -0.111848 -0.0822412 0.145797 -0.110708 -0.00109803 0.0551487 -0.101942 
-0.0752061 0.0644539 -0.10237 -0.0984004 0.091446 -0.104653 -0.0618169 0.0916829 -0.10039 
-0.00835379 0.0988901 -0.0980787 -0.0376925 0.162462 -0.103091 -0.0833617 0.0629141 -0.0956397 
-0.0484628 0.06638 -0.0960084 -0.04269 0.0800645 -0.0856746 -0.0876797 0.0851424 -0.0867248 
-0.0370324 0.0909226 -0.0856498 -0.0689852 0.131357 -0.0869858 -0.0862438 0.154073 -0.0889079 
-0.051051 0.180577 -0.0834703 -0.112516 0.0609141 -0.0745165 -0.142884 0.0751347 -0.0780865 
-0.0254094 0.0550578 -0.0706894 -0.0848825 0.133355 -0.0727564 -0.0633033 0.15763 -0.0707001 
-0.115328 0.176876 -0.071048 -0.0854499 0.0606512 -0.0651969 -0.0213209 0.064845 -0.064144 
-0.0746292 0.0766401 -0.0611348 -0.055362 0.0703202 -0.0691008 -0.116412 0.112787 -0.0613838 
-0.0207791 0.176679 -0.0624821 -0.091591 0.0571182 -0.0580746 -0.0122594 0.17394 -0.0528907 
-0.00762303 0.061387 -0.0453423 -0.106945 0.0661409 -0.0464992 -0.0770084 0.0720426 -0.0454044 
-0.056044 0.0906916 -0.0455967 -0.128911 0.104975 -0.044965 -0.0289356 0.101614 -0.0482856 
-0.0825843 0.165416 -0.0488779 -0.0529626 0.184348 -0.0495144 -0.115983 0.0552011 -0.0418059 
-0.0763869 0.0552853 -0.041213 -0.041175 0.0767547 -0.0451107 -0.00600298 0.0744093 -0.0434717 
-0.0397378 0.0860811 -0.0378801 -0.0542321 0.0551578 -0.032518 -0.117567 0.0720302 -0.0328349 
-0.053216 0.0771118 -0.0328628 -0.104349 0.141889 -0.0326997 -0.127583 0.160264 -0.0307965 
-0.138294 0.0575813 -0.0210181 -0.0699307 0.0651944 -0.0281267 -0.0605024 0.0651948 -0.0239737 
-0.130885 0.0750009 -0.0301757 -0.00315661 0.0708265 -0.028629 -0.044523 0.0781948 -0.0246312 
-0.0481004 0.0690496 -0.0214924 -0.0897682 0.0803878 -0.0223499 -0.0223149 0.100496 -0.0178601 
-0.0128121 0.129112 -0.0166689 -0.0488331 0.136774 -0.019761 -0.138022 0.055713 -0.00988347 
-0.0752042 0.0624727 -0.0113949 -0.135926 0.0927591 -0.00873853 -0.144979 0.099211 -0.0121453 
-0.0170984 0.176457 -0.0113466 -0.10631 0.0568831 -0.00732354 -0.0789222 0.0569467 -0.000441259 
-0.114122 0.0617863 -0.00311208 -0.0976234 0.065821 -0.000343868 -0.0137858 0.0830826 -0.00237345 
-0.0712962 0.0881598 -0.00327476 -0.132422 0.104862 -0.00533879 -0.0445103 0.143593 -0.00115547 
-0.0256739 0.17595 -0.00304603 -0.0487675 0.0561677 -8.41403e-05 -0.133419 0.0611613 0.00401436 
-0.122263 0.0611103 0.00511129 -0.0959817 0.0579305 0.00597182 -0.102821 0.153234 0.142512 
-0.105849 0.0667944 0.00712241 -0.0185492 0.118191 0.000507215 -0.144379 0.0589895 0.0132275 
-0.0531955 0.0550817 0.0126118 -0.0367654 0.061755 0.0100507 -0.112901 0.0710531 0.0144639 
-0.129733 0.0661265 0.0151868 -0.118821 0.0659598 0.0208207 -0.0131151 0.0670963 0.0196847 
-0.00232475 0.0674767 0.0171519 -0.0458364 0.071717 0.0173417 -0.108847 0.0915446 0.0165712 
-0.0909018 0.0917217 0.0163247 -0.133284 0.0551029 0.0249722 -0.0978167 0.0610312 0.027042 
-0.0510526 0.0567612 0.0277961 -0.0131036 0.0561301 0.023559 -0.0833998 0.0650331 0.0248086 
-0.131936 0.0771697 0.0300658 -0.0869052 0.150391 0.0242678 -0.0268464 0.0689734 0.0302267 
-0.0229224 0.0852441 0.0358548 -0.0427022 0.124658 0.0365476 -0.102629 0.152019 0.03481 
-0.123814 0.0592886 0.0448186 -0.066323 0.0593701 0.0395909 -0.0167583 0.0566219 0.0403945 
-0.130193 0.0676844 0.0387621 -0.0356239 0.062452 0.0391679 -0.0251837 0.0702134 0.0416206 
-0.129012 0.102446 0.0436889 -0.0660782 0.166721 0.0377727 -0.137568 0.0562646 0.0531172 
-0.0885321 0.0561811 0.0471717 -0.0787115 0.0581953 0.0482107 -0.0235753 0.0631274 0.0532346 
-0.0897739 0.147753 0.0467329 -0.0992258 0.156321 0.0494318 -0.0124876 0.0603972 0.0598047 
-0.141009 0.0668917 0.0569169 -0.111809 0.128508 0.0580448 -0.0401407 0.157361 0.0590509 
-0.0943801 0.0826765 0.0630295 -0.12224 0.0851944 0.0637074 -0.0702138 0.09631 0.0622163 
-0.106768 0.172442 0.062131 -0.0515666 0.181274 0.0619924 -0.139181 0.056755 0.0684766 
-0.048378 0.0621895 0.0702839 -0.021045 0.0967069 0.0745443 -0.129488 0.170057 0.0744458 
-0.139645 0.174872 0.0708777 -0.0517696 0.177307 0.0712832 -0.0866333 0.121733 0.0777687 
-0.0260893 0.165125 0.0819113 -0.141263 0.102725 0.0858575 -0.0418929 0.13905 0.0872563 
-0.141346 0.162316 0.0840536 -0.120297 0.174766 0.0836254 -0.0514965 0.0641643 0.0962755 
-0.111708 0.145407 0.0902508 -0.0169162 0.146725 0.0973861 -0.037216 0.0682193 0.101608 
-0.0294329 0.0987547 0.100697 -0.120967 0.137237 0.099581 -0.140335 0.156999 0.104456 
-0.0300233 0.159088 0.100108 -0.0811467 0.165386 0.101028 -0.0619266 0.105258 0.107121 
-0.0538406 0.113693 0.10768 -0.0707572 0.138756 0.112985 -0.0604151 0.0958579 0.113733 
-0.0761804 0.118542 0.1187 -0.109689 0.136773 0.113556 -0.041655 0.146159 0.115038 
-0.0294349 0.149855 0.112917 -0.0305737 0.0570871 0.125616 -0.0502693 0.129892 0.123115 
-0.131996 0.141327 0.121351 -0.121933 0.125698 0.130491 -0.0975328 0.126206 0.129996 
-0.14378 0.0677855 0.140257 -0.0781475 0.0906161 0.140441 -0.0711909 0.101409 0.135673 
-0.0478456 0.131193 0.141116 -0.0916037 0.0556068 0.14327 -0.023596 0.06327 0.144936 
-0.0845743 0.0799089 0.144451 -0.108222 0.208556 -0.0964624 -0.108222 0.208561 -0.0922461 
-0.108221 0.203268 -0.0922401 -0.108221 0.203263 -0.0964564 -0.104006 0.208562 -0.0922461 
-0.104006 0.208557 -0.0964624 -0.104005 0.203269 -0.0922401 -0.104005 0.203264 -0.0964564 
-0.0302828 0.208056 0.0291238 -0.0346985 0.208141 0.0291087 -0.0302037 0.212471 0.0291807 
-0.0346194 0.212557 0.0291656 -0.0303004 0.207985 0.0335396 -0.0347161 0.20807 0.0335244 
-0.0302213 0.212401 0.0335965 -0.034637 0.212486 0.0335813 -0.0953797 0.231242 0.0530341 
-0.0877405 0.231243 0.0530342 -0.095381 0.252547 0.0530371 -0.0877417 0.252548 0.0530371 
-0.0953798 0.23124 0.0606734 -0.0877405 0.231241 0.0606734 -0.095381 0.252545 0.0606763 
-0.0877418 0.252546 0.0606764 0.0137851 0.0551794 -0.144855 0.0228938 0.060584 -0.144714 
0.042176 0.0573858 -0.142711 0.00397435 0.0655646 -0.144684 0.103038 0.07537 -0.142503 
0.143791 0.0961119 -0.143747 0.100278 0.101998 -0.143946 0.12353 0.115245 -0.144167 
0.106244 0.125486 -0.144718 0.00710897 0.0555936 -0.135944 0.0316867 0.05499 -0.138083 
0.112542 0.0587611 -0.139994 0.0522407 0.0640234 -0.135121 0.0668169 0.0758018 -0.139032 
0.00689235 0.0815622 -0.138731 0.018849 0.0806548 -0.137454 0.0731596 0.0558097 -0.128998 
0.109528 0.057452 -0.12747 0.0115857 0.0665386 -0.129729 0.0268902 0.0622078 -0.13161 
0.0326752 0.0741942 -0.129153 0.0600915 0.0757119 -0.127794 0.0939481 0.079189 -0.130247 
0.0385198 0.0635011 -0.124953 0.119826 0.131271 -0.122465 0.144613 0.0602873 -0.116094 
0.0837469 0.0663904 -0.115587 0.0247919 0.0772507 -0.117192 0.0683849 0.078429 -0.118987 
0.0995379 0.138844 -0.117922 0.0295199 0.0572889 -0.104875 0.118026 0.064771 -0.109894 
0.0571412 0.0866014 -0.108352 0.03361 0.114009 -0.11091 0.00405083 0.0687086 -0.097697 
0.065614 0.0644004 -0.101115 0.0692626 0.0821868 -0.098327 0.0457588 0.10866 -0.103862 
0.117756 0.147296 -0.104992 0.037783 0.0588204 -0.0942605 0.0531176 0.0694385 -0.0922676 
0.0929612 0.128266 -0.0971738 0.13619 0.141729 -0.0934543 0.0179903 0.0554069 -0.0821884 
0.116446 0.0609926 -0.0833932 0.138218 0.0560006 -0.0851229 0.00726215 0.0629565 -0.0831354 
0.0142829 0.0761796 -0.0842561 0.0262256 0.0723767 -0.0886158 0.0402652 0.0714514 -0.0840691 
0.0456 0.0818775 -0.087292 0.117295 0.0973846 -0.0841352 0.0699576 0.135552 -0.0872124 
0.0470374 0.0571918 -0.0812324 0.0283101 0.068091 -0.0747682 0.0926603 0.0818827 -0.0823501 
0.0716495 0.0960588 -0.0778465 0.0593938 0.111312 -0.0805621 0.0166128 0.0612414 -0.0741534 
0.0637338 0.0675288 -0.0730128 0.0375767 0.0960544 -0.0718321 0.109231 0.125909 -0.07065 
0.0791879 0.146383 -0.0732273 0.0101499 0.0610915 -0.0659304 0.0769768 0.0645838 -0.0592365 
0.0610766 0.118058 -0.0628014 0.0119103 0.127794 -0.0647115 0.0526679 0.0937203 -0.0560081 
0.0269614 0.110907 -0.0529293 0.0497833 0.111788 -0.0548743 0.0853605 0.144028 -0.0564998 
0.116199 0.148534 -0.0556866 0.0658769 0.156316 -0.0535316 0.123222 0.0624765 -0.0478287 
0.142119 0.071628 -0.0490771 0.144951 0.103882 -0.0434184 0.0103229 0.125673 -0.0376183 
0.0424097 0.129646 -0.0445213 0.0682013 0.137827 -0.040551 0.0841556 0.144458 -0.0404409 
0.0782108 0.0568282 -0.0322229 0.0223289 0.0784707 -0.0364906 0.0490797 0.0880391 -0.0287129 
0.0221201 0.102872 -0.0334015 0.0373722 0.164939 -0.0368689 0.111612 0.0576842 -0.0275345 
0.0636307 0.0640782 -0.0255422 0.133175 0.0846194 -0.0291282 0.0549499 0.0956503 -0.02246 
0.0709388 0.0952109 -0.0284368 0.134517 0.0971945 -0.0257604 0.0190587 0.125012 -0.0269856 
0.0454973 0.120789 -0.0264216 0.0399827 0.0653343 -0.021159 0.0424798 0.0761135 -0.0182014 
0.143907 0.0758576 -0.0165422 0.0277691 0.0597829 -0.00910192 0.0875843 0.0755049 -0.00911802 
0.138078 0.0985047 -0.00849145 0.0371279 0.0571604 -0.0033201 0.117108 0.0598568 -0.00638019 
0.141004 0.0749171 -0.0065326 0.0790392 0.0913859 -0.00409648 0.0479724 0.114722 -0.00190162 
0.144672 0.131923 -0.00690267 0.00950237 0.136391 -0.00743161 0.070561 0.0572026 0.00518076 
0.13031 0.0683748 0.00170917 0.000181436 0.084545 0.00259221 0.115623 0.062507 0.00858487 
0.0704624 0.0706332 0.0110285 0.0945096 0.0760382 0.0116557 0.109032 0.0844854 0.00865705 
0.0243297 0.0856082 0.0112343 0.021212 0.130991 0.00987201 0.124726 0.125783 0.00958134 
0.0385738 0.155112 0.0105862 0.0868549 0.0632043 0.017273 0.10353 0.064374 0.0190923 
0.105771 0.0589994 0.0295756 0.0398334 0.0626657 0.0268768 0.071879 0.0728446 0.0266489 
0.0542318 0.0916446 0.0242962 0.0254953 0.127356 0.0242153 0.0796051 0.0605608 0.0304101 
0.0602066 0.0755715 0.0360099 0.112929 0.072596 0.0320516 0.0159545 0.0933222 0.0363905 
0.0377455 0.0903559 0.0338319 0.0757739 0.0555537 0.0412214 0.129533 0.0556082 0.0407036 
0.0598033 0.0654741 0.044648 0.134467 0.0677021 0.038158 0.14161 0.0726619 0.044654 
0.0854034 0.0789893 0.0420081 0.0315408 0.155826 0.0388382 0.104904 0.156597 0.0429799 
0.135786 0.0657948 0.0520216 0.0186262 0.0767373 0.0474303 0.075285 0.0730152 0.0467121 
0.109059 0.115128 0.0509461 0.0244073 0.0562885 0.0535159 0.0394442 0.0594246 0.0564914 
0.0852251 0.123355 0.0569815 0.0391514 0.135582 0.0550272 0.0008494 0.150066 0.0535078 
0.113063 0.0754336 0.0622509 0.000582045 0.143484 0.0628615 0.0996243 0.16694 0.0668667 
0.0306014 0.0571385 0.0716837 0.135282 0.1619 0.0715682 0.108265 0.176108 0.0738467 
0.025502 0.0552515 0.0823264 0.00277653 0.075261 0.0754921 0.123622 0.0859312 0.0784018 
0.0529636 0.158184 0.0760465 0.140736 0.0615068 0.0871478 0.118101 0.068703 0.0891517 
0.0344724 0.0883834 0.0866711 0.0515848 0.105282 0.0846741 0.139263 0.128062 0.0849429 
0.00514896 0.060892 0.0955334 0.137652 0.0714821 0.0932007 0.0136701 0.0966163 0.090927 
0.0988643 0.104014 0.0937502 0.0895544 0.147233 0.0903467 0.0554659 0.059737 0.0988373 
0.112724 0.0740808 0.101682 0.0101333 0.098074 0.100196 0.070502 0.146097 0.104652 
0.136945 0.0795402 0.107197 0.0553621 0.091507 0.107414 0.0986995 0.103454 0.108739 
0.127083 0.109717 0.107163 0.015259 0.0552968 0.119829 0.0682232 0.101823 0.112612 
0.0237009 0.126719 0.114758 0.0765357 0.161667 0.117392 0.0430123 0.174477 0.11682 
0.090657 0.0563103 0.12185 0.0347911 0.0911275 0.12195 0.0661349 0.0905036 0.120726 
0.0141997 0.164247 0.122614 0.0231621 0.0634315 0.128805 0.018698 0.0792831 0.132704 
0.029516 0.0980135 0.132746 0.128417 0.167921 0.128467 0.127176 0.0590778 0.137443 
0.136456 0.0635615 0.138829 0.138005 0.0898259 0.139129 0.0806615 0.136048 0.139688 
0.0430241 0.143254 0.13604 0.00365252 0.181198 0.139129 0.0140212 0.163402 0.144329 
0.114952 0.176865 0.143164 
VERTICES 422 421
OFFSETS vtktypeint64
0 1 2 3 4 5 6 7 8 
9 10 11 12 13 14 15 16 17 
18 19 20 21 22 23 24 25 26 
27 28 29 30 31 32 33 34 35 
36 37 38 39 40 41 42 43 44 
45 46 47 48 49 50 51 52 53 
54 55 56 57 58 59 60 61 62 
63 64 65 66 67 68 69 70 71 
72 73 74 75 76 77 78 79 80 
81 82 83 84 85 86 87 88 89 
90 91 92 93 94 95 96 97 98 
99 100 101 102 103 104 105 106 107 
108 109 110 111 112 113 114 115 116 
117 118 119 120 121 122 123 124 125 
126 127 128 129 130 131 132 133 134 
135 136 137 138 139 140 141 142 143 
144 145 146 147 148 149 150 151 152 
153 154 155 156 157 158 159 160 161 
162 163 164 165 166 167 168 169 170 
171 172 173 174 175 176 177 178 179 
180 181 182 183 184 185 186 187 188 
189 190 191 192 193 194 195 196 197 
198 199 200 201 202 203 204 205 206 
207 208 209 210 211 212 213 214 215 
216 217 218 219 220 221 222 223 224 
225 226 227 228 229 230 231 232 233 
234 235 236 237 238 239 240 241 242 
243 244 245 246 247 248 249 250 251 
252 253 254 255 256 257 258 259 260 
261 262 263 264 265 266 267 268 269 
270 271 272 273 274 275 276 277 278 
279 280 281 282 283 284 285 286 287 
288 289 290 291 292 293 294 295 296 
297 298 299 300 301 302 303 304 305 
306 307 308 309 310 311 312 313 314 
315 316 317 318 319 320 321 322 323 
324 325 326 327 328 329 330 331 332 
333 334 335 336 337 338 339 340 341 
342 343 344 345 346 347 348 349 350 
351 352 353 354 355 356 357 358 359 
360 361 362 363 364 365 366 367 368 
369 370 371 372 373 374 375 376 377 
378 379 380 381 382 383 384 385 386 
387 388 389 390 391 392 393 394 395 
396 397 398 399 400 401 402 403 404 
405 406 407 408 409 410 411 412 413 
414 415 416 417 418 419 420 421 
CONNECTIVITY vtktypeint64
0 1 2 3 4 5 6 7 8 
9 10 11 12 13 14 15 16 17 
18 19 20 21 22 23 24 25 26 
27 28 29 30 31 32 33 34 35 
36 37 38 39 40 41 42 43 44 
45 46 47 48 49 50 51 52 53 
54 55 56 57 58 59 60 61 62 
63 64 65 66 67 68 69 70 71 
72 73 74 75 76 77 78 79 80 
81 82 83 84 85 86 87 88 89 
90 91 92 93 94 95 96 97 98 
99 100 101 102 103 104 105 106 107 
108 109 110 111 112 113 114 115 116 
117 118 119 120 121 122 123 124 125 
126 127 128 129 130 131 132 133 134 
135 136 137 138 139 140 141 142 143 
144 145 146 147 148 149 150 151 152 
153 154 155 156 157 158 159 160 161 
162 163 164 165 166 167 168 169 170 
171 172 173 174 175 176 177 178 179 
180 181 182 183 184 185 186 187 188 
189 190 191 192 193 194 195 196 197 
198 199 200 201 202 203 204 205 206 
207 208 209 210 211 212 213 214 215 
216 217 218 219 220 221 222 223 224 
225 226 227 228 229 230 231 232 233 
234 235 236 237 238 239 240 241 242 
243 244 245 246 247 248 249 250 251 
252 253 254 255 256 257 258 259 260 
261 262 263 264 265 266 267 268 269 
270 271 272 273 274 275 276 277 278 
279 280 281 282 283 284 285 286 287 
288 289 290 291 292 293 294 295 296 
297 298 299 300 301 302 303 304 305 
306 307 308 309 310 311 312 313 314 
315 316 317 318 319 320 321 322 323 
324 325 326 327 328 329 330 331 332 
333 334 335 336 337 338 339 340 341 
342 343 344 345 346 347 348 349 350 
351 352 353 354 355 356 357 358 359 
360 361 362 363 364 365 366 367 368 
369 370 371 372 373 374 375 376 377 
378 379 380 381 382 383 384 385 386 
387 388 389 390 391 392 393 394 395 
396 397 398 399 400 401 402 403 404 
405 406 407 408 409 410 411 412 413 
414 415 416 417 418 419 420 
POINT_DATA 421
FIELD FieldData 8
id 1 421 int
3781 3801 3994 3970 3744 3884 3745 2648 3937 
3894 2739 3785 2755 2901 3823 3917 3749 3726 
3907 3024 3586 3931 3296 3023 3773 3987 3959 
3981 3025 3802 3844 3730 3852 3943 3903 3858 
3180 3403 3405 3685 3359 3830 3711 3734 3757 
3960 3242 3908 3873 3976 3824 2756 3727 3716 
3731 3949 3767 3026 3814 3877 3932 3808 3243 
3404 3360 3181 2962 2961 3758 3686 2823 3774 
3687 2825 3853 3918 3738 2749 3809 3961 3135 
2824 3878 3759 3297 3786 3919 3896 2482 3995 
3787 3939 3244 3519 3895 3925 3938 3815 3920 
3133 3885 3746 3182 3971 3879 3996 3951 3845 
3134 3975 3982 2902 3720 3722 3831 3953 3688 
3962 3782 3950 3825 3803 3835 2963 3940 3909 
3988 3836 3631 3747 3810 3775 3955 3794 3587 
3846 3989 3783 3760 3788 3847 3854 3406 3906 
3728 3735 3863 3768 3911 3461 2826 3769 3871 
3864 3859 3795 3910 3941 3761 3299 2757 3721 
3136 3765 3407 3245 2964 3904 3588 3776 3898 
3736 3183 3754 3865 3817 3954 2509 3886 3804 
2649 3748 3997 3874 3880 3963 3837 3933 3866 
3855 3977 3984 3887 3921 3897 3729 3956 3632 
3690 3689 3848 3875 4020 4021 4019 4018 4017 
4024 4023 4022 4014 4010 4016 4012 4015 4011 
4009 4013 4002 4006 4004 4008 4003 4007 4005 
4001 3899 3849 3161 3927 3900 3876 3957 3905 
3942 3972 3818 3934 3838 3811 3952 3789 3741 
3717 3978 3964 3762 3860 3440 2927 3965 3867 
2989 3922 3784 3944 3888 3945 3985 3796 3819 
3755 3856 2867 3839 3665 2591 3666 3868 3737 
3812 3869 3766 2481 3208 3770 3778 3712 3826 
2748 3889 3441 3840 3691 3805 3162 3881 3386 
3832 3966 3777 3262 3793 3806 3891 3797 3841 
3827 3813 2483 3850 2751 2750 3929 3928 3842 
3324 3763 3999 3915 3713 3851 3723 3946 3613 
3614 3771 3990 3973 3385 3991 3890 3714 3923 
3913 3779 3914 3442 3870 3901 3912 3882 3764 
3791 3263 2690 3820 3732 3828 2790 3084 3742 
3518 3718 3692 3979 3790 3667 3668 3986 3974 
3750 3998 3924 2484 3916 2928 3739 3947 3715 
3892 3756 3807 3751 3719 3993 3799 3298 3926 
4000 3821 3834 3833 3862 3520 3861 3752 3209 
3843 3325 3958 2752 3772 3930 3798 3443 3780 
2550 3326 3857 3980 3829 3968 2868 3983 3822 
3733 3872 3902 3992 3792 3800 3743 3753 3521 
3935 2753 3725 3694 3883 3969 3967 3724 3936 
3444 3693 3948 3893 2754 2990 3163 
type 1 421 int
2 2 2 2 2 2 2 2 2 
2 2 2 2 2 2 2 2 2 
2 2 2 2 2 2 2 2 2 
2 2 2 2 2 2 2 2 2 
2 2 2 2 2 2 2 2 2 
2 2 2 2 2 2 2 2 2 
2 2 2 2 2 2 2 2 2 
2 2 2 2 2 2 2 2 2 
2 2 2 2 2 2 2 2 2 
2 2 2 2 2 2 2 2 2 
2 2 2 2 2 2 2 2 2 
2 2 2 2 2 2 2 2 2 
2 2 2 2 2 2 2 2 2 
2 2 2 2 2 2 2 2 2 
2 2 2 2 2 2 2 2 2 
2 2 2 2 2 2 2 2 2 
2 2 2 2 2 2 2 2 2 
2 2 2 2 2 2 2 2 2 
2 2 2 2 2 2 2 2 2 
2 2 2 2 2 2 2 2 2 
2 2 2 2 2 2 2 2 2 
2 2 2 2 2 2 2 2 2 
2 2 2 2 2 2 2 2 2 
2 2 2 2 2 2 2 2 2 
2 2 2 2 2 2 2 2 2 
2 2 2 2 2 2 2 2 2 
2 2 2 2 2 2 2 2 2 
2 2 2 2 2 2 2 2 2 
2 2 2 2 2 2 2 2 2 
2 2 2 2 2 2 2 2 2 
2 2 2 2 2 2 2 2 2 
2 2 2 2 2 2 2 2 2 
2 2 2 2 2 2 2 2 2 
2 2 2 2 2 2 2 2 2 
2 2 2 2 2 2 2 2 2 
2 2 2 2 2 2 2 2 2 
2 2 2 2 2 2 2 2 2 
2 2 2 2 2 2 2 2 2 
2 2 2 2 2 2 2 2 2 
2 2 2 2 2 2 2 2 2 
2 2 2 2 2 2 2 2 2 
2 2 2 2 2 2 2 2 2 
2 2 2 2 2 2 2 2 2 
2 2 2 2 2 2 2 2 2 
2 2 2 2 2 2 2 2 2 
2 2 2 2 2 2 2 2 2 
2 2 2 2 2 2 2 
i 3 421 int
0 0 0 0 0 0 0 0 0 
0 0 0 0 0 0 0 0 0 
0 0 0 0 0 0 0 0 0 
0 0 0 0 0 0 0 0 0 
0 0 0 0 0 0 0 0 0 
0 0 0 0 0 0 0 0 0 
0 0 0 0 0 0 0 0 0 
0 0 0 0 0 0 0 0 0 
0 0 0 0 0 0 0 0 0 
0 0 0 0 0 0 0 0 0 
0 0 0 0 0 0 0 0 0 
0 0 0 0 0 0 0 0 0 
0 0 0 0 0 0 0 0 0 
0 0 0 0 0 0 0 0 0 
0 0 0 0 0 0 0 0 0 
0 0 0 0 0 0 0 0 0 
0 0 0 0 0 0 0 0 0 
0 0 0 0 0 0 0 0 0 
0 0 0 0 0 0 0 0 0 
0 0 0 0 0 0 0 0 0 
0 0 0 0 0 0 0 0 0 
0 0 0 0 0 0 0 0 0 
0 0 0 0 0 0 0 0 0 
0 0 0 0 0 0 0 0 0 
0 0 0 0 0 0 0 0 0 
0 0 0 0 0 0 0 0 0 
0 0 0 0 0 0 0 0 0 
0 0 0 0 0 0 0 0 0 
0 0 0 0 0 0 0 0 0 
0 0 0 0 0 0 0 0 0 
0 0 0 0 0 0 0 0 0 
0 0 0 0 0 0 0 0 0 
0 0 0 0 0 0 0 0 0 
0 0 0 0 0 0 0 0 0 
0 0 0 0 0 0 0 0 0 
0 0 0 0 0 0 0 0 0 
0 0 0 0 0 0 0 0 0 
0 0 0 0 0 0 0 0 0 
0 0 0 0 0 0 0 0 0 
0 0 0 0 0 0 0 0 0 
0 0 0 0 0 0 0 0 0 
0 0 0 0 0 0 0 0 0 
0 0 0 0 0 0 0 0 0 
0 0 0 0 0 0 0 0 0 
0 0 0 0 0 0 0 0 0 
0 0 0 0 0 0 0 0 0 
0 0 0 0 0 0 0 0 0 
0 0 0 0 0 0 0 0 0 
0 0 0 0 0 0 0 0 0 
0 0 0 0 0 0 0 0 0 
0 0 0 0 0 0 0 0 0 
0 0 0 0 0 0 0 0 0 
0 0 0 0 0 0 0 0 0 
0 0 0 0 0 0 0 0 0 
0 0 0 0 0 0 0 0 0 
0 0 0 0 0 0 0 0 0 
0 0 0 0 0 0 0 0 0 
0 0 0 0 0 0 0 0 0 
0 0 0 0 0 0 0 0 0 
0 0 0 0 0 0 0 0 0 
0 0 0 0 0 0 0 0 0 
0 0 0 0 0 0 0 0 0 
0 0 0 0 0 0 0 0 0 
0 0 0 0 0 0 0 0 0 
0 0 0 0 0 0 0 0 0 
0 0 0 0 0 0 0 0 0 
0 0 0 0 0 0 0 0 0 
0 0 0 0 0 0 0 0 0 
0 0 0 0 0 0 0 0 0 
0 0 0 0 0 0 0 0 0 
0 0 0 0 0 0 0 0 0 
0 0 0 0 0 0 0 0 0 
0 0 0 0 0 0 0 0 0 
0 0 0 0 0 0 0 0 0 
0 0 0 0 0 0 0 0 0 
0 0 0 0 0 0 0 0 0 
0 0 0 0 0 0 0 0 0 
0 0 0 0 0 0 0 0 0 
0 0 0 0 0 0 0 0 0 
0 0 0 0 0 0 0 0 0 
0 0 0 0 0 0 0 0 0 
0 0 0 0 0 0 0 0 0 
0 0 0 0 0 0 0 0 0 
0 0 0 0 0 0 0 0 0 
0 0 0 0 0 0 0 0 0 
0 0 0 0 0 0 0 0 0 
0 0 0 0 0 0 0 0 0 
0 0 0 0 0 0 0 0 0 
0 0 0 0 0 0 0 0 0 
0 0 0 0 0 0 0 0 0 
0 0 0 0 0 0 0 0 0 
0 0 0 0 0 0 0 0 0 
0 0 0 0 0 0 0 0 0 
0 0 0 0 0 0 0 0 0 
0 0 0 0 0 0 0 0 0 
0 0 0 0 0 0 0 0 0 
0 0 0 0 0 0 0 0 0 
0 0 0 0 0 0 0 0 0 
0 0 0 0 0 0 0 0 0 
0 0 0 0 0 0 0 0 0 
0 0 0 0 0 0 0 0 0 
0 0 0 0 0 0 0 0 0 
0 0 0 0 0 0 0 0 0 
0 0 0 0 0 0 0 0 0 
0 0 0 0 0 0 0 0 0 
0 0 0 0 0 0 0 0 0 
0 0 0 0 0 0 0 0 0 
0 0 0 0 0 0 0 0 0 
0 0 0 0 0 0 0 0 0 
0 0 0 0 0 0 0 0 0 
0 0 0 0 0 0 0 0 0 
0 0 0 0 0 0 0 0 0 
0 0 0 0 0 0 0 0 0 
0 0 0 0 0 0 0 0 0 
0 0 0 0 0 0 0 0 0 
0 0 0 0 0 0 0 0 0 
0 0 0 0 0 0 0 0 0 
0 0 0 0 0 0 0 0 0 
0 0 0 0 0 0 0 0 0 
0 0 0 0 0 0 0 0 0 
0 0 0 0 0 0 0 0 0 
0 0 0 0 0 0 0 0 0 
0 0 0 0 0 0 0 0 0 
0 0 0 0 0 0 0 0 0 
0 0 0 0 0 0 0 0 0 
0 0 0 0 0 0 0 0 0 
0 0 0 0 0 0 0 0 0 
0 0 0 0 0 0 0 0 0 
0 0 0 0 0 0 0 0 0 
0 0 0 0 0 0 0 0 0 
0 0 0 0 0 0 0 0 0 
0 0 0 0 0 0 0 0 0 
0 0 0 0 0 0 0 0 0 
0 0 0 0 0 0 0 0 0 
0 0 0 0 0 0 0 0 0 
0 0 0 0 0 0 0 0 0 
0 0 0 0 0 0 0 0 0 
0 0 0 0 0 0 0 0 0 
0 0 0 0 0 0 0 0 0 
0 0 0 0 0 0 0 0 0 
0 0 0 
v 3 421 double
0.011437581343 0.0064495035338 -0.011133559874 0.010048934566 -0.00070430313784 0.0034683114765 -0.015970077835 0.15166809512 0.0078683031147 
-0.13317801248 0.16221021249 0.0070055395523 0.0084999301845 0.1323890659 0.0081926522313 0.0041098429884 0.30328549985 0.0085481915591 
-0.0056303209371 0.0085283445581 0.016039859049 -0.027173646627 0.011902077028 0.021408443641 0.00042695319134 0.13846042764 0.029105660503 
0.0046274359853 0.008066801115 -0.0032981339191 0.0086390268809 0.038845535794 -0.0015567670795 -0.021953360345 0.025884201396 0.04599242959 
-0.015825932323 -0.0093599622889 0.054880867859 0.019798951085 0.040401127349 0.0076420378047 -0.027682094838 0.035560805087 0.07204171858 
-0.078830096885 0.05744859893 0.00019912973901 -0.19048707261 0.037453699347 -0.044591951551 0.088754276994 0.22662720955 0.01755179333 
0 0.410001241 0 0.012445841211 0.010247161759 0.022377678425 -0.052806535397 0.024323413529 0.073682984456 
-0.055110835015 0.016838623604 0.044337729087 0.012718550083 0.067616469755 0.01425317236 -0.032235806057 0.015450186834 0.090000174597 
-0.046543241901 0.073906791384 0.057776194531 -0.031250205073 0.21919385107 0.082559184695 -0.00066328633309 0.27334262606 0.093316999735 
0.096087284017 0.12261288527 -0.004294039915 0.080083059495 0.1932706412 -0.029612981518 -0.040956546694 0.26237529859 -0.077021290032 
-0.023837693753 0.013424326694 0.030482934101 -0.0073663242247 0.069707047504 -0.21902865838 -0.024108631974 0.052866387327 -0.0092589620461 
0.010421709988 0.032597662155 0.089304931032 0.035121297983 0.12847363527 0.096812815135 0.0527175037 0.1461298439 -0.014994661505 
-0.005644904192 0.11634111591 0.004857108426 -0.0096575554909 0.27005267014 0.0080604148417 0.25756245549 -0.015135834357 -0.069742482745 
0.12933529232 0.042588217061 0.051919416551 -0.097613623005 0.14261836488 -0.069878233524 -0.02568388976 0.17898130461 0.043235618101 
0.15312727312 0.17656285951 -0.0069606360303 0 0.39896583638 0 0.17906924697 0.04465336239 0.12954131523 
-0.097092786944 0.060812066546 0.13240196031 8.7304082862e-05 0.05658216547 0.0490846904 -0.21558529215 -0.019513045433 -0.17941226195 
-0.041178332009 0.14957725344 0.14796284926 -0.00010155981897 0.4026845298 0.00010091191765 0 0.4099646538 0 
0 0.39895779965 -0.0048950405667 -0.023683525094 0.038479039595 0.077669425022 0.084560273476 0.0049494460269 0.023097140815 
-0.10514529648 0.01736526256 0.032910920883 0 0.39875905054 0 -0.004507024569 0.40045571211 -0.019038581245 
-1.4485258125e-05 0.39873630553 -3.634419112e-05 0.11795535952 0.0097730096812 0.18953233749 -0.051741169069 0.04058371722 -0.053836692909 
0.0048568421874 0.08945452959 -0.10391745121 0.022134701501 0.099469048355 -0.23615431165 0.0073616794846 0.22860097262 0.0056379145434 
0.013750131286 0.41310435568 -0.010249234026 -0.099909780889 0.037548871686 -0.10337260641 -0.0006249839803 0.39654364795 -0.0035443033661 
-0.0039167831326 0.051254836739 -0.001557137884 0.0720265258 0.092481050782 0.10567728676 0.21273066105 0.083784470045 0.0040210919325 
-0.082935369571 0.12454513688 0.22031739751 0.048239276178 0.099225294711 0.24497616456 0.1287683514 0.19121853907 0.11076579337 
0 0.39374558319 -0.0047274651976 0 0.41049660782 0 0.021593665187 0.0095357454859 0.083271952659 
0.016865480206 0.009155321853 -0.074806218358 -0.30322048806 -0.00067532323441 -0.23970168846 -0.035862658324 0.090291244517 0.064308977049 
0.088817694295 0.1124998154 -0.053149249242 0.095677381331 0.0044200649861 -0.086041273012 0.011388376557 0.041364487349 -0.11565082641 
0.14831821886 0.096433713588 0.0054818525004 0 0.39904491296 0 0 0.40508628054 1.1391752074e-05 
0.030768952669 0.038366551808 0.3088595884 0.068650783752 0.018026213225 0.060475464125 0.13889610943 -0.022972110717 0.059703086428 
-0.10659233928 0.13529730026 -0.13355815864 -0.019593090008 0.057115403233 0.099738465183 0.11689517866 0.034012877468 -0.026184469839 
0.11173750803 0.065437441398 -0.013712116863 -0.016476201133 0.099454444818 -0.084306564822 -0.011140416409 0.097767829241 -0.12921837017 
-0.081077584478 0.27179021998 -0.19453844851 0 0.38773520475 0 0.046836046932 0.038295668143 -0.065266407339 
0.031590655792 0.043572963739 -0.02529784089 0.0094198569489 0.15103026516 -0.022541178981 0.018591639551 0.12848182032 -0.079499134325 
-0.0030995011966 0.4005287818 -0.0015598553611 -0.040935584861 0.0080659946873 -0.037605969439 -0.02456028625 0.011359228832 -0.0113720337 
-0.05241557277 -7.6474465414e-05 -0.038101718797 -0.079995245439 -0.017084149868 -0.024509996072 -0.033229108723 0.13146619811 -0.072439225811 
-0.0061600299512 0.11429591419 0.13432692073 -0.3079784592 0.20546468663 -0.29548681616 -0.018713004647 0.38875185117 7.8913229596e-15 
0.0017389604782 0.39882328398 -0.0017389604782 0.027032685635 0.021794619309 -0.024559164227 0.019787213071 -0.021501967877 -0.04342603547 
-0.041395108312 0.030254707256 -0.015962865519 -0.047772226234 0.0132061549 0.03151757883 -0.22880268682 0.26789886558 -0.019808350501 
-0.04239299415 0.032731008683 -0.025360640441 -0.15104217532 0.21350433729 -0.08847513098 0.0050133738183 0.03415893043 0.0051985059679 
0.080529813377 0.0057628936695 0.0071294393731 0.077184004256 0.066064098953 0.077633274331 0.017297158063 0.051523199259 0.034196204277 
-0.0094375276358 0.047072839183 -0.0043676764478 -0.0039913111495 0.045910097796 0.029473773607 0.14414420127 0.070733586407 0.116579113 
0.08384646776 0.068416862212 0.012924444158 0.058087612515 0.020893658911 0.057573748421 -0.093883439559 0.14252171153 0.082969879669 
-0.029513261594 0.16173266479 0.02841832475 0.058714015235 0.0017270508604 -0.0052240249124 -0.046054797591 0.035397971386 0.092164701031 
0.045861773211 0.010416166083 0.066043061475 0.073524872124 -0.0089080269211 0.085640873075 -0.021958819501 0.054191597684 0.048298013441 
0.024759942221 0.078324211804 0.044473428344 -0.0021049833578 0.38899466784 -0.000126565171 0.026945964456 0.018330502396 0.0051605768176 
0.13707801014 0.10385176188 0.11392848556 -0.00052740355422 0.38710693906 -0.0011288573072 -0.0020887119363 0.38986351732 -0.0070491576428 
-0.055878085168 0.018552676409 0.077319089015 -0.0096835260449 0.035256949499 0.052062394919 -0.029110559063 0.018207847277 -0.076876075613 
-0.065001341762 0.019554148352 0.081816480773 0.0058662362083 -0.0047575354982 0.1205492242 -0.20612077071 0.03697736462 -0.10285249585 
-0.028734807798 0.24194419456 -0.0010331898798 0 0.41007381017 0 0.048787878444 0.025521855283 0.10157198777 
0.015763933914 0.0065948336356 0.094849352011 0.047063978182 0.041759266265 -0.02083733871 0.17678183662 0.045691837597 0.11687765623 
-0.0016610994383 0.29654940525 0.0087496036546 0.0020429030869 0.39521847008 -0.0010600737839 -0.036678867017 0.018828960769 0.032514711551 
-0.1805049794 0.05781629622 -0.033949824544 0.012190777852 0.32929773123 0.012633784709 0 0.41052549956 0 
-0.13645977946 0.12244416595 0.087249181893 0.031131950044 0.032706997154 0.10031977015 -0.018697854525 0.19836571032 0.034234384001 
0 0.39882697079 0 0.00010325432685 0.40108221516 -0.0062223017539 0.047994318171 0.039418765254 0.071322416347 
-0.00044574958215 0.029243049089 0.10201140501 -0.076416026534 0.17725342488 -0.024615689046 0.0023122065005 0.39628274053 0.0023597342796 
0.00056348824668 0.40152978625 0.00027402949384 -0.00010325432685 0.39693094846 -0.0034834038764 0.044804293718 0.32049728826 -0.0062287931832 
0 0.38755395842 -0.0050852537353 0.08060329694 0.0325350987 0.01274380369 0.0002814165965 0.39586236908 -0.0042450652735 
0 0.39872827304 0 -8.0938774001e-06 0.39894161244 0 0.16820795446 0.029549338883 0.12446726565 
-0.00036883905222 0.40129851273 -0.0077537456699 0 0.38761842277 0 -0.012212897362 0.075823784745 -0.18361467497 
-0.0033082998542 0.13377592098 -0.0033247496929 0.0012503121485 0.38702661056 -0.005926866043 0 0.41016565709 9.1963837408e-06 
-0.0046666478446 0.28784143851 -0.0046798590522 0.0002436659938 0.41148920957 0.0063921664547 0.033991363402 0.19247764267 -0.017820487125 