# vtk DataFile Version 5.1
Generated by LIGGGHTS
ASCII
DATASET POLYDATA
POINTS 400 float
-0.109468 0.0598559 -0.14385 -0.0621232 0.0569927 -0.143371 -0.108392 0.0732891 -0.143197 
-0.0571878 0.0866603 -0.144928 -0.0503681 0.102382 -0.145271 -0.0504207 0.114946 -0.143435 
-0.0230143 0.112252 -0.144208 -0.101362 0.123297 -0.146384 -0.0231112 0.121748 -0.143959 
-0.101505 0.13251 -0.146762 -0.144128 0.0590621 -0.139473 -0.0556849 0.0673363 -0.134569 
-0.0135413 0.0579709 -0.13765 -0.144331 0.0701408 -0.141553 -0.0462052 0.0789744 -0.139071 
-0.0433878 0.0884188 -0.135818 -0.047331 0.0999241 -0.135152 -0.101699 0.13144 -0.138462 
-0.109868 0.0565896 -0.131552 -0.141983 0.0755846 -0.131691 -0.0617982 0.0748833 -0.128604 
-0.127336 0.102399 -0.131567 -0.0560796 0.100391 -0.131719 -0.0561563 0.11106 -0.13228 
-0.018625 0.121288 -0.131706 -0.144205 0.0673249 -0.125623 -0.1288 0.0675686 -0.126477 
-0.107052 0.0631731 -0.123327 -0.108854 0.0722484 -0.127466 -0.0407703 0.0702634 -0.121207 
-0.12275 0.0748675 -0.121652 -0.058075 0.081278 -0.121554 -0.137539 0.126335 -0.12077 
-0.105844 0.0549817 -0.117724 -0.0793627 0.0595858 -0.113111 -0.144047 0.0664212 -0.115436 
-0.106733 0.0630993 -0.110188 -0.0455557 0.064915 -0.114261 -0.0797303 0.0755837 -0.112804 
-0.0315024 0.0855113 -0.114633 -0.142623 0.0966246 -0.114568 -0.0258321 0.0668185 -0.110386 
-0.140846 0.0754063 -0.105571 -0.0376925 0.0587311 -0.103091 -0.00970756 0.0550756 -0.10087 
-0.00996277 0.0672659 -0.101131 -0.105536 0.0551699 -0.0921472 -0.0549312 0.0672761 -0.093157 
-0.0724317 0.0558789 -0.0860065 -0.0525938 0.0587913 -0.0866918 -0.0862438 0.0721926 -0.0889079 
-0.0689455 0.124456 -0.0874121 -0.0637733 0.0618656 -0.0782684 -0.051051 0.0768477 -0.0821976 
-0.102192 0.0593512 -0.0708614 -0.0183655 0.0620298 -0.0747172 -0.102619 0.072707 -0.0733985 
-0.115324 0.0732047 -0.0710385 -0.0424089 0.0859789 -0.0733433 -0.0118694 0.0939681 -0.0688276 
-0.0848825 0.116885 -0.0727564 -0.11728 0.0580957 -0.0620285 -0.0621727 0.0571076 -0.0659314 
-0.0468937 0.0773934 -0.0667481 -0.0968285 0.110446 -0.0670721 -0.0243542 0.0692722 -0.0598173 
-0.111764 0.0727574 -0.0578771 -0.135531 0.0555857 -0.0464906 -0.0825843 0.0630423 -0.0476487 
-0.0120969 0.0708384 -0.0519692 -0.0529626 0.0776185 -0.0495144 -0.142186 0.0868088 -0.046699 
-0.0321897 0.0752968 -0.0406702 -0.0346985 0.103896 -0.0424495 -0.127583 0.0549393 -0.0307994 
-0.071701 0.0634332 -0.0346657 -0.0696031 0.0757154 -0.0342731 -0.104349 0.0956392 -0.0326997 
-0.0286902 0.0807226 -0.0293131 -0.0943281 0.0619731 -0.0190172 -0.0898282 0.0734108 -0.0202872 
-0.0910964 0.103654 -0.0184302 -0.0811059 0.104578 -0.0186804 -0.0488331 0.101146 -0.019761 
-0.0162925 0.0723191 -0.0109411 -0.100941 0.0755103 -0.0121343 -0.0798699 0.121752 -0.0100229 
-0.0684745 0.133828 -0.0136913 -0.0261261 0.0722561 -0.0025939 -0.0554894 0.0622966 -0.00654822 
-0.0559575 0.0735889 -0.00666262 -0.052742 0.0846323 -0.00115547 -0.0419402 0.0846323 -0.00115547 
-0.0889423 0.112989 -0.00149597 -0.0812059 0.11262 -0.0038202 -0.0687312 0.123701 -0.0043053 
-0.0684745 0.133828 -0.00407499 -0.00014824 0.0584061 0.00587648 -0.106874 0.0744654 0.00727872 
-0.00117882 0.0718664 0.0048459 -0.0977433 0.0958364 0.00075058 -0.0977286 0.106231 0.00127759 
-0.0739033 0.112713 0.00561773 -0.0764192 0.121761 0.00306196 -0.144135 0.0635442 0.0138936 
-0.106343 0.0596661 0.00819974 -0.0851448 0.0554175 0.0128844 -0.0748221 0.0553652 0.0109662 
-0.0867704 0.0652639 0.0102703 -0.0242295 0.0621139 0.0148348 -0.0752122 0.0655191 0.0105761 
-0.0393374 0.0654549 0.0134231 -0.0344104 0.0800968 0.0142238 -0.142434 0.0999441 0.0120594 
-0.110144 0.104998 0.00827273 -0.143462 0.109169 0.0115149 -0.110207 0.115272 0.00800912 
-0.0750202 0.120459 0.0115243 -0.079087 0.131209 0.0139143 -0.0983856 0.0593023 0.0188288 
-0.061977 0.0561174 0.0176378 -0.070081 0.0631771 0.0202852 -0.0210479 0.07386 0.0155585 
-0.102231 0.0699741 0.0174136 -0.0691356 0.0732441 0.0203905 -0.100016 0.0806761 0.0166222 
-0.00985644 0.0932911 0.0153254 -0.00668838 0.109875 0.0202288 -0.137759 0.128669 0.0175844 
-0.112151 0.0554559 0.0252505 -0.0112096 0.059067 0.0285644 -0.0161359 0.067238 0.0236914 
-0.0864574 0.0678314 0.0242943 -0.114623 0.0748517 0.023741 -0.14473 0.0811378 0.024856 
-0.114946 0.086014 0.0234184 -0.145059 0.0929161 0.0241968 -0.137495 0.11801 0.0268044 
-0.136148 0.059721 0.0351424 -0.0564579 0.0570541 0.0326756 -0.102162 0.0642837 0.0363853 
-0.0568742 0.102801 0.0321826 -0.0424298 0.131144 0.0369219 -0.0660782 0.0601021 0.0377727 
-0.0508628 0.054929 0.0430053 -0.089342 0.0706499 0.044458 -0.0526542 0.0672561 0.0367032 
-0.0471919 0.0815753 0.0411342 -0.128779 0.115383 0.0412511 -0.123206 0.0579672 0.0462181 
-0.099738 0.0569916 0.0497004 -0.0597116 0.0635064 0.0552299 -0.0898143 0.0948189 0.047101 
-0.0401407 0.0643019 0.0590509 -0.116583 0.0873604 0.0530976 -0.069135 0.115675 0.0553639 
-0.106768 0.0687466 0.062131 -0.0515694 0.077418 0.0621647 -0.095388 0.0898264 0.0674947 
-0.0953354 0.103584 0.0664574 -0.139792 0.0704741 0.0708065 -0.13009 0.0670238 0.0738322 
-0.0884547 0.0553675 0.0731333 -0.0517667 0.0736793 0.0736343 -0.0624371 0.0929228 0.0723856 
-0.10894 0.0579934 0.0804932 -0.0849956 0.0792806 0.0814699 -0.0993653 0.101902 0.0790909 
-0.141346 0.0586462 0.0840536 -0.0260893 0.0643613 0.0832335 -0.120295 0.0710408 0.0836254 
-0.0419155 0.100686 0.087622 -0.0169162 0.0761287 0.0973861 -0.111623 0.0883273 0.0913072 
-0.0658332 0.0948268 0.0925481 -0.08121 0.0583988 0.0993659 -0.0285728 0.063973 0.101562 
-0.140335 0.0649829 0.104454 -0.0288099 0.0842489 0.101325 -0.121075 0.0995391 0.10014 
-0.0579011 0.11579 0.110994 -0.0419875 0.0874518 0.114444 -0.0290146 0.0835133 0.112754 
-0.109689 0.108334 0.113554 -0.0596369 0.13568 0.113574 -0.131993 0.0968083 0.121118 
-0.0637582 0.11768 0.121064 -0.0503343 0.125889 0.123052 -0.0487376 0.0613614 0.131666 
-0.0483526 0.0753355 0.136155 -0.116971 0.0998393 0.13039 -0.123261 0.10667 0.130518 
-0.0391755 0.116961 0.138051 -0.0343705 0.12336 0.139595 -0.0719078 0.057729 0.143817 
-0.0715331 0.0699105 0.144169 -0.0489196 0.066033 0.143738 -0.0659864 0.0826085 0.14481 
-0.065721 0.0935089 0.145153 -0.0346504 0.124389 0.146475 0.029114 0.0713593 -0.143141 
0.0281281 0.0832751 -0.143505 0.0463597 0.0908462 -0.143888 0.137977 0.0965684 -0.145153 
0.139219 0.106305 -0.145536 0.134914 0.113701 -0.143121 0.0217387 0.116012 -0.146101 
0.106239 0.114775 -0.145592 0.0214137 0.129714 -0.142437 0.132526 0.0567807 -0.135636 
0.0447499 0.0584618 -0.13769 0.132949 0.0676212 -0.135876 0.0440257 0.0672872 -0.144125 
0.0476091 0.0779349 -0.141949 0.138341 0.0896685 -0.137589 0.0127958 0.0995034 -0.138579 
0.0131839 0.109092 -0.139265 0.0176417 0.121158 -0.138991 0.00949983 0.122722 -0.139547 
0.0354181 0.055515 -0.129528 0.0350235 0.0651278 -0.129923 0.0524692 0.0995613 -0.131584 
0.00963041 0.113319 -0.130217 0.0313887 0.107635 -0.12824 0.0122176 0.0563576 -0.120493 
0.0115972 0.0668057 -0.121118 0.0488436 0.0870433 -0.125507 0.0229828 0.0971886 -0.125913 
0.119799 0.120678 -0.122524 0.0661022 0.0567605 -0.119389 0.0517607 0.0607026 -0.116269 
0.100064 0.112354 -0.118487 0.095787 0.117925 -0.113898 0.0173796 0.0607143 -0.10774 
0.0423429 0.0583985 -0.111819 0.028234 0.055651 -0.111737 0.0278485 0.0689436 -0.112122 
0.11809 0.0798794 -0.105146 0.0377797 0.0965271 -0.106899 0.000610995 0.0592668 -0.0994837 
0.0328428 0.0556675 -0.101745 0.0533358 0.0559287 -0.106492 0.0531604 0.0749111 -0.104206 
0.041472 0.0828916 -0.0975335 0.0514065 0.0931706 -0.0974805 0.090253 0.127718 -0.097926 
0.04237 0.0561581 -0.0914728 0.0920525 0.0621297 -0.0972702 0.00676144 0.0712077 -0.0888511 
0.0602541 0.0590395 -0.0947002 0.0720701 0.0577107 -0.0905313 0.0572018 0.0689407 -0.0940487 
0.0210412 0.0739362 -0.0933727 0.0791606 0.0676998 -0.0932694 0.13629 0.0910092 -0.0937039 
0.0666263 0.113955 -0.0938224 0.0104868 0.0551977 -0.0851649 0.0555812 0.058206 -0.083061 
0.0147161 0.0639953 -0.0856226 0.00932312 0.0807015 -0.0897231 0.0802588 0.0773425 -0.0862034 
0.0635527 0.0625311 -0.0748751 0.0943181 0.0577558 -0.0800002 0.00491346 0.0637079 -0.0800505 
0.0532736 0.0659335 -0.0767335 0.0929278 0.0702979 -0.0819791 0.108372 0.0892183 -0.075805 
0.110921 0.068872 -0.0689228 0.0791647 0.0799904 -0.0728355 0.0379628 0.137128 -0.0698659 
0.0596389 0.0750731 -0.0629871 0.115999 0.0837466 -0.064954 0.0658769 0.0666541 -0.0532495 
0.116199 0.0755038 -0.0556883 0.0853605 0.0828568 -0.0564998 0.0281015 0.09659 -0.0549763 
0.0133744 0.102422 -0.0579028 0.0193485 0.061552 -0.0466533 0.0283526 0.0624843 -0.0507297 
0.0576942 0.0546728 -0.0469634 0.0174835 0.0769036 -0.0447789 0.0574108 0.0672102 -0.0472468 
0.0371752 0.10493 -0.048353 0.0421413 0.0554478 -0.0407319 0.127124 0.0614955 -0.039367 
0.125271 0.0767666 -0.0372945 0.0841556 0.0820278 -0.03974 0.0682018 0.107349 -0.0405517 
0.0374733 0.0633908 -0.0315272 0.122466 0.105267 -0.0352263 0.132042 0.114744 -0.0257493 
0.0190596 0.130635 -0.0269865 0.145343 0.0971904 -0.0166233 0.136704 0.105742 -0.0160663 
0.145627 0.106369 -0.0153618 0.0553769 0.122826 -0.0150262 0.0143217 0.0921861 -0.000856333 
0.145627 0.10533 -0.00637403 0.102743 0.0553783 -0.000426614 0.0730069 0.0581336 0.00268789 
0.102482 0.0667831 0.00265834 0.0708838 0.0723513 6.89107e-06 0.0803211 0.0876432 0.00207993 
0.104768 0.0854684 0.00701455 0.0800557 0.0991894 0.00112358 0.0535328 0.12086 0.00490442 
0.0532686 0.131387 0.0050329 0.0251252 0.0604265 0.0120297 0.0592093 0.056858 0.00990039 
0.0941078 0.0608133 0.0141137 0.106162 0.0561367 0.0150593 0.0533504 0.0658133 0.00698689 
0.0656316 0.0634054 0.0149022 0.023537 0.0746846 0.0104415 0.0678043 0.0779335 0.0128201 
0.104654 0.0747909 0.00821892 0.0779537 0.0561342 0.0216627 0.0771829 0.0679048 0.0196579 
0.0829442 0.0778272 0.0161836 0.107306 0.0678772 0.0181729 0.112133 0.0763145 0.016036 
0.0867038 0.0563121 0.0286751 0.112088 0.05792 0.0240161 0.144968 0.0572155 0.0224127 
0.0874377 0.0676873 0.0248347 0.122534 0.0647896 0.0243877 0.0794468 0.0861152 0.0240076 
0.0791815 0.0976271 0.0245991 0.0254973 0.129084 0.0242359 0.137426 0.0554136 0.0374684 
0.117378 0.0645892 0.033024 0.104442 0.0794116 0.0337201 0.132815 0.112252 0.0357099 
0.0911773 0.123962 0.037521 0.111173 0.124878 0.036698 0.0912421 0.133608 0.0370225 
0.0856222 0.0587088 0.0394309 0.0315408 0.0550641 0.038837 0.128245 0.0608916 0.0395758 
0.105087 0.0659569 0.0440198 0.020013 0.106154 0.0396497 0.115432 0.108463 0.0385862 
0.0197476 0.115962 0.0396801 0.132554 0.11876 0.0407852 0.133109 0.0616508 0.0508075 
0.0910195 0.103516 0.0509131 0.115698 0.0999417 0.0477984 0.0378871 0.0635225 0.055944 
0.00122961 0.0775445 0.0531787 0.0286351 0.101018 0.0549024 0.0928286 0.125723 0.0588249 
0.0852251 0.134738 0.0569815 0.0252705 0.0586758 0.0608487 0.0998136 0.0655648 0.0674538 
0.0425599 0.0629468 0.0665469 0.0491598 0.0778288 0.0646297 0.000582045 0.0881548 0.0635842 
0.0248327 0.0556208 0.075886 0.135083 0.0572204 0.0713043 0.108331 0.0713409 0.0738036 
0.0586488 0.0713647 0.0701591 0.00101075 0.0556347 0.0816485 0.0175697 0.0695789 0.0804644 
0.00513332 0.0899152 0.0809704 0.0551516 0.0619672 0.0861743 0.1206 0.0663467 0.0865437 
0.00535774 0.0798621 0.0829633 0.018991 0.0822772 0.0847025 0.0868613 0.0774332 0.0897197 
0.032027 0.067776 0.0913885 0.00987728 0.0629898 0.0913516 0.0377481 0.0758059 0.0945366 
0.0561334 0.129683 0.092473 0.123469 0.13091 0.0957058 0.038715 0.0616979 0.103241 
0.0700747 0.0764741 0.104232 0.0465584 0.0879876 0.0996492 0.0201528 0.118455 0.102106 
0.128207 0.0581041 0.106699 0.123396 0.120956 0.105329 0.0768075 0.0573871 0.117981 
0.143631 0.0587044 0.117524 0.043592 0.0679887 0.11681 0.0607972 0.0640367 0.115405 
0.0572454 0.093282 0.115643 0.0201432 0.118898 0.112712 0.0142641 0.0626759 0.122745 
0.0538515 0.0685531 0.124677 0.0859433 0.0616756 0.128824 0.127467 0.0643792 0.129523 
0.0571803 0.105443 0.13257 0.0896803 0.109796 0.130486 0.132322 0.0574891 0.142742 
0.144659 0.0551847 0.137442 0.138059 0.0624029 0.133157 0.00488744 0.0779687 0.139972 
0.0430737 0.093779 0.136365 0.0806615 0.11078 0.139488 0.0143689 0.0694337 0.144037 
0.114633 0.0725993 0.143319 
VERTICES 401 400
OFFSETS vtktypeint64
0 1 2 3 4 5 6 7 8 
9 10 11 12 13 14 15 16 17 
18 19 20 21 22 23 24 25 26 
27 28 29 30 31 32 33 34 35 
36 37 38 39 40 41 42 43 44 
45 46 47 48 49 50 51 52 53 
54 55 56 57 58 59 60 61 62 
63 64 65 66 67 68 69 70 71 
72 73 74 75 76 77 78 79 80 
81 82 83 84 85 86 87 88 89 
90 91 92 93 94 95 96 97 98 
99 100 101 102 103 104 105 106 107 
108 109 110 111 112 113 114 115 116 
117 118 119 120 121 122 123 124 125 
126 127 128 129 130 131 132 133 134 
135 136 137 138 139 140 141 142 143 
144 145 146 147 148 149 150 151 152 
153 154 155 156 157 158 159 160 161 
162 163 164 165 166 167 168 169 170 
171 172 173 174 175 176 177 178 179 
180 181 182 183 184 185 186 187 188 
189 190 191 192 193 194 195 196 197 
198 199 200 201 202 203 204 205 206 
207 208 209 210 211 212 213 214 215 
216 217 218 219 220 221 222 223 224 
225 226 227 228 229 230 231 232 233 
234 235 236 237 238 239 240 241 242 
243 244 245 246 247 248 249 250 251 
252 253 254 255 256 257 258 259 260 
261 262 263 264 265 266 267 268 269 
270 271 272 273 274 275 276 277 278 
279 280 281 282 283 284 285 286 287 
288 289 290 291 292 293 294 295 296 
297 298 299 300 301 302 303 304 305 
306 307 308 309 310 311 312 313 314 
315 316 317 318 319 320 321 322 323 
324 325 326 327 328 329 330 331 332 
333 334 335 336 337 338 339 340 341 
342 343 344 345 346 347 348 349 350 
351 352 353 354 355 356 357 358 359 
360 361 362 363 364 365 366 367 368 
369 370 371 372 373 374 375 376 377 
378 379 380 381 382 383 384 385 386 
387 388 389 390 391 392 393 394 395 
396 397 398 399 400 
CONNECTIVITY vtktypeint64
0 1 2 3 4 5 6 7 8 
9 10 11 12 13 14 15 16 17 
18 19 20 21 22 23 24 25 26 
27 28 29 30 31 32 33 34 35 
36 37 38 39 40 41 42 43 44 
45 46 47 48 49 50 51 52 53 
54 55 56 57 58 59 60 61 62 
63 64 65 66 67 68 69 70 71 
72 73 74 75 76 77 78 79 80 
81 82 83 84 85 86 87 88 89 
90 91 92 93 94 95 96 97 98 
99 100 101 102 103 104 105 106 107 
108 109 110 111 112 113 114 115 116 
117 118 119 120 121 122 123 124 125 
126 127 128 129 130 131 132 133 134 
135 136 137 138 139 140 141 142 143 
144 145 146 147 148 149 150 151 152 
153 154 155 156 157 158 159 160 161 
162 163 164 165 166 167 168 169 170 
171 172 173 174 175 176 177 178 179 
180 181 182 183 184 185 186 187 188 
189 190 191 192 193 194 195 196 197 
198 199 200 201 202 203 204 205 206 
207 208 209 210 211 212 213 214 215 
216 217 218 219 220 221 222 223 224 
225 226 227 228 229 230 231 232 233 
234 235 236 237 238 239 240 241 242 
243 244 245 246 247 248 249 250 251 
252 253 254 255 256 257 258 259 260 
261 262 263 264 265 266 267 268 269 
270 271 272 273 274 275 276 277 278 
279 280 281 282 283 284 285 286 287 
288 289 290 291 292 293 294 295 296 
297 298 299 300 301 302 303 304 305 
306 307 308 309 310 311 312 313 314 
315 316 317 318 319 320 321 322 323 
324 325 326 327 328 329 330 331 332 
333 334 335 336 337 338 339 340 341 
342 343 344 345 346 347 348 349 350 
351 352 353 354 355 356 357 358 359 
360 361 362 363 364 365 366 367 368 
369 370 371 372 373 374 375 376 377 
378 379 380 381 382 383 384 385 386 
387 388 389 390 391 392 393 394 395 
396 397 398 399 
POINT_DATA 400
FIELD FieldData 8
id 1 400 int
2755 2648 3023 3744 3884 3917 3937 3970 3959 
3994 3781 2901 3773 3801 3726 3844 3873 3987 
3745 3823 3586 3907 3903 3931 3960 3024 2739 
3757 3785 3296 3814 3830 3981 3685 3180 3297 
3727 3242 3403 3852 3894 3025 2823 3734 3766 
3793 2961 3802 3359 3686 3824 3976 3774 2756 
3716 3711 3740 3026 3858 3877 3949 3243 3767 
2824 3932 3404 3786 3758 3687 3181 2825 3853 
2962 3908 3759 3405 3809 3878 3835 3135 3360 
3919 3918 3895 3133 3815 3961 3996 3134 3787 
3808 3846 3845 3939 3938 3975 3995 3263 3182 
3519 3885 3909 3940 3971 3688 2902 3631 3746 
3720 2963 3775 3782 3810 3896 3920 3925 3950 
3962 3988 3768 3747 3788 3244 3803 3816 3831 
3879 3926 3982 3760 3298 3587 3794 3825 3836 
3854 3863 3955 3721 3461 3783 3910 3989 3735 
3136 2826 3406 3847 3941 3728 3769 3761 3027 
3795 3859 3951 3299 2757 3864 3911 3245 3407 
3754 2964 3874 3776 3837 3904 3736 3588 3183 
3898 3817 3865 3880 3748 2509 3804 2649 3886 
3963 3866 3855 3933 3997 3887 3956 3984 3690 
3722 3897 3921 3954 3983 3689 3729 3632 3848 
3875 3977 3818 3849 3838 3876 3905 3934 3952 
3942 3978 3717 2927 3741 3161 3811 3867 3899 
3927 3964 3972 3762 3789 3900 3943 3922 3730 
3749 3860 3888 3965 3440 3665 3944 3957 3208 
2867 3770 3796 3839 3889 3691 3737 2748 2989 
3856 3881 3985 2591 3712 3731 3755 3777 3784 
3819 3812 3868 3945 2481 3162 3805 3840 3826 
3262 3441 2749 3385 3666 3869 3386 3832 3999 
3518 3850 3813 3827 3841 3891 3915 2482 3763 
3778 2750 3797 3929 3613 2483 2751 3842 3928 
3713 3923 3946 3990 3890 3914 3913 3973 3882 
3912 3324 3779 3614 3806 3870 3851 3901 3966 
3991 2790 3714 3764 3692 3738 3750 3084 3790 
3820 3667 3723 3771 3732 3828 3718 2690 3442 
3742 3791 3861 3892 3986 3715 2928 3833 3947 
3974 3979 3998 3739 3756 3751 3807 3924 3930 
3953 3958 3780 3916 3902 3668 3834 3906 3980 
4000 3719 3520 3798 3821 3862 3743 3752 3209 
2868 3765 3325 3871 2484 3799 3843 3857 3829 
3443 3792 2752 3993 3992 2550 3822 3872 3969 
3772 3968 3753 3326 3521 3800 3883 3967 3694 
2753 3725 3724 3935 3936 3693 3444 3733 2754 
3893 3948 2990 3163 
type 1 400 int
2 2 2 2 2 2 2 2 2 
2 2 2 2 2 2 2 2 2 
2 2 2 2 2 2 2 2 2 
2 2 2 2 2 2 2 2 2 
2 2 2 2 2 2 2 2 2 
2 2 2 2 2 2 2 2 2 
2 2 2 2 2 2 2 2 2 
2 2 2 2 2 2 2 2 2 
2 2 2 2 2 2 2 2 2 
2 2 2 2 2 2 2 2 2 
2 2 2 2 2 2 2 2 2 
2 2 2 2 2 2 2 2 2 
2 2 2 2 2 2 2 2 2 
2 2 2 2 2 2 2 2 2 
2 2 2 2 2 2 2 2 2 
2 2 2 2 2 2 2 2 2 
2 2 2 2 2 2 2 2 2 
2 2 2 2 2 2 2 2 2 
2 2 2 2 2 2 2 2 2 
2 2 2 2 2 2 2 2 2 
2 2 2 2 2 2 2 2 2 
2 2 2 2 2 2 2 2 2 
2 2 2 2 2 2 2 2 2 
2 2 2 2 2 2 2 2 2 
2 2 2 2 2 2 2 2 2 
2 2 2 2 2 2 2 2 2 
2 2 2 2 2 2 2 2 2 
2 2 2 2 2 2 2 2 2 
2 2 2 2 2 2 2 2 2 
2 2 2 2 2 2 2 2 2 
2 2 2 2 2 2 2 2 2 
2 2 2 2 2 2 2 2 2 
2 2 2 2 2 2 2 2 2 
2 2 2 2 2 2 2 2 2 
2 2 2 2 2 2 2 2 2 
2 2 2 2 2 2 2 2 2 
2 2 2 2 2 2 2 2 2 
2 2 2 2 2 2 2 2 2 
2 2 2 2 2 2 2 2 2 
2 2 2 2 2 2 2 2 2 
2 2 2 2 2 2 2 2 2 
2 2 2 2 2 2 2 2 2 
2 2 2 2 2 2 2 2 2 
2 2 2 2 2 2 2 2 2 
2 2 2 2 
i 3 400 int
0 0 0 0 0 0 0 0 0 
0 0 0 0 0 0 0 0 0 
0 0 0 0 0 0 0 0 0 
0 0 0 0 0 0 0 0 0 
0 0 0 0 0 0 0 0 0 
0 0 0 0 0 0 0 0 0 
0 0 0 0 0 0 0 0 0 
0 0 0 0 0 0 0 0 0 
0 0 0 0 0 0 0 0 0 
0 0 0 0 0 0 0 0 0 
0 0 0 0 0 0 0 0 0 
0 0 0 0 0 0 0 0 0 
0 0 0 0 0 0 0 0 0 
0 0 0 0 0 0 0 0 0 
0 0 0 0 0 0 0 0 0 
0 0 0 0 0 0 0 0 0 
0 0 0 0 0 0 0 0 0 
0 0 0 0 0 0 0 0 0 
0 0 0 0 0 0 0 0 0 
0 0 0 0 0 0 0 0 0 
0 0 0 0 0 0 0 0 0 
0 0 0 0 0 0 0 0 0 
0 0 0 0 0 0 0 0 0 
0 0 0 0 0 0 0 0 0 
0 0 0 0 0 0 0 0 0 
0 0 0 0 0 0 0 0 0 
0 0 0 0 0 0 0 0 0 
0 0 0 0 0 0 0 0 0 
0 0 0 0 0 0 0 0 0 
0 0 0 0 0 0 0 0 0 
0 0 0 0 0 0 0 0 0 
0 0 0 0 0 0 0 0 0 
0 0 0 0 0 0 0 0 0 
0 0 0 0 0 0 0 0 0 
0 0 0 0 0 0 0 0 0 
0 0 0 0 0 0 0 0 0 
0 0 0 0 0 0 0 0 0 
0 0 0 0 0 0 0 0 0 
0 0 0 0 0 0 0 0 0 
0 0 0 0 0 0 0 0 0 
0 0 0 0 0 0 0 0 0 
0 0 0 0 0 0 0 0 0 
0 0 0 0 0 0 0 0 0 
0 0 0 0 0 0 0 0 0 
0 0 0 0 0 0 0 0 0 
0 0 0 0 0 0 0 0 0 
0 0 0 0 0 0 0 0 0 
0 0 0 0 0 0 0 0 0 
0 0 0 0 0 0 0 0 0 
0 0 0 0 0 0 0 0 0 
0 0 0 0 0 0 0 0 0 
0 0 0 0 0 0 0 0 0 
0 0 0 0 0 0 0 0 0 
0 0 0 0 0 0 0 0 0 
0 0 0 0 0 0 0 0 0 
0 0 0 0 0 0 0 0 0 
0 0 0 0 0 0 0 0 0 
0 0 0 0 0 0 0 0 0 
0 0 0 0 0 0 0 0 0 
0 0 0 0 0 0 0 0 0 
0 0 0 0 0 0 0 0 0 
0 0 0 0 0 0 0 0 0 
0 0 0 0 0 0 0 0 0 
0 0 0 0 0 0 0 0 0 
0 0 0 0 0 0 0 0 0 
0 0 0 0 0 0 0 0 0 
0 0 0 0 0 0 0 0 0 
0 0 0 0 0 0 0 0 0 
0 0 0 0 0 0 0 0 0 
0 0 0 0 0 0 0 0 0 
0 0 0 0 0 0 0 0 0 
0 0 0 0 0 0 0 0 0 
0 0 0 0 0 0 0 0 0 
0 0 0 0 0 0 0 0 0 
0 0 0 0 0 0 0 0 0 
0 0 0 0 0 0 0 0 0 
0 0 0 0 0 0 0 0 0 
0 0 0 0 0 0 0 0 0 
0 0 0 0 0 0 0 0 0 
0 0 0 0 0 0 0 0 0 
0 0 0 0 0 0 0 0 0 
0 0 0 0 0 0 0 0 0 
0 0 0 0 0 0 0 0 0 
0 0 0 0 0 0 0 0 0 
0 0 0 0 0 0 0 0 0 
0 0 0 0 0 0 0 0 0 
0 0 0 0 0 0 0 0 0 
0 0 0 0 0 0 0 0 0 
0 0 0 0 0 0 0 0 0 
0 0 0 0 0 0 0 0 0 
0 0 0 0 0 0 0 0 0 
0 0 0 0 0 0 0 0 0 
0 0 0 0 0 0 0 0 0 
0 0 0 0 0 0 0 0 0 
0 0 0 0 0 0 0 0 0 
0 0 0 0 0 0 0 0 0 
0 0 0 0 0 0 0 0 0 
0 0 0 0 0 0 0 0 0 
0 0 0 0 0 0 0 0 0 
0 0 0 0 0 0 0 0 0 
0 0 0 0 0 0 0 0 0 
0 0 0 0 0 0 0 0 0 
0 0 0 0 0 0 0 0 0 
0 0 0 0 0 0 0 0 0 
0 0 0 0 0 0 0 0 0 
0 0 0 0 0 0 0 0 0 
0 0 0 0 0 0 0 0 0 
0 0 0 0 0 0 0 0 0 
0 0 0 0 0 0 0 0 0 
0 0 0 0 0 0 0 0 0 
0 0 0 0 0 0 0 0 0 
0 0 0 0 0 0 0 0 0 
0 0 0 0 0 0 0 0 0 
0 0 0 0 0 0 0 0 0 
0 0 0 0 0 0 0 0 0 
0 0 0 0 0 0 0 0 0 
0 0 0 0 0 0 0 0 0 
0 0 0 0 0 0 0 0 0 
0 0 0 0 0 0 0 0 0 
0 0 0 0 0 0 0 0 0 
0 0 0 0 0 0 0 0 0 
0 0 0 0 0 0 0 0 0 
0 0 0 0 0 0 0 0 0 
0 0 0 0 0 0 0 0 0 
0 0 0 0 0 0 0 0 0 
0 0 0 0 0 0 0 0 0 
0 0 0 0 0 0 0 0 0 
0 0 0 0 0 0 0 0 0 
0 0 0 0 0 0 0 0 0 
0 0 0 0 0 0 0 0 0 
0 0 0 0 0 0 0 0 0 
0 0 0 0 0 0 0 0 0 
0 0 0 0 0 0 0 0 0 
0 0 0 
v 3 400 double
0.0017108691617 0.092913335528 -0.00014199777 -0.034028346872 0.042358511706 -0.012530444206 0.020631748548 0.17880320196 0.015836613842 
-0.16402815595 -0.50635246861 -0.064028015248 -0.01085233179 -0.82897663213 0.039972707858 -0.013734895208 -0.48692684303 0.10265739592 
-0.0054454375635 -1.0033467067 -0.0048384122679 0 -0.94319114996 0.039814560203 -0.0032109286111 -0.99667905255 0.0098342594501 
0.0069110417467 -0.92597620335 0.039846371928 0.032259505716 -0.98394000378 0 0.078451339605 0.055402699999 0.13277700494 
0 -1 0 0.033526373215 -0.96374171783 -0.041926356577 0.066271742858 -0.56661154189 0.040361573367 
0.31208578683 -0.4367738468 0.27824734041 0.0866935993 -0.61502995563 0.23322715679 -0.0069674211245 -0.9721303155 0.0069674211246 
-0.094451651339 -0.029940539389 -0.29318987268 0.14255840854 -0.2204099404 -0.30443039913 -0.18876196662 -0.57011162894 -0.029328716199 
0 -1.0278696845 0 -0.0015146679419 -1.0255311648 0.0038100942606 0.0031083959005 -0.99335849204 -0.0030514078837 
-0.0017459094468 -1.0111189021 -0.0080386425114 -0.1317646245 -0.39322313543 0.35916460131 -0.28509230218 -0.32031398117 -0.24398425931 
0.0340779321 0.0002319135752 0.0029551833854 -0.093359494911 0.015343262754 -0.30567772697 0.31021751057 0.10823488802 0.1784960085 
0.31223624079 -0.33803605457 0.24039670806 0.1086170075 -0.55587730925 0.28130026752 0.00017700445032 -1.0107416072 -0.012519541024 
0.045278846675 0.016260534617 0.10215776217 -0.005644904192 0.11634111591 0.004857108426 -0.010638472443 0.37415425496 0.002111636917 
-0.014901053929 -0.088385435829 0.28332991228 -0.064482305143 0.13963330767 0.17489646031 -0.0096575554909 0.27005267014 0.0080604148417 
0 -1 0 0.0015146679419 -1.0302082042 -0.0038100942606 0.18580942352 0.21889229546 0.035964813705 
0 0.40003533198 0 0 0.39896583638 0 0 0.40994690933 5.5835820181e-06 
0.00013521316886 -0.97333577444 6.2467170716e-05 0.011295963689 -0.1469347912 0.39858229342 -0.00013521316886 -0.99879454107 -6.2467170716e-05 
-0.29996656792 -0.3570826473 -0.23583846595 0.35773231607 -0.14994287195 -0.050988743325 0 -1.0278696845 0 
-0.00029414138551 -1.0100510944 0.0058730871698 0.21795270778 -0.47837881233 0.18855550643 0 0.39895779965 -0.0048950405667 
-0.0040698707369 0.28466486532 -0.023757018061 0 0.39389108135 0.0050239420839 -0.013439671783 0.51232874696 -0.080587636658 
-1.4485258125e-05 0.39873630553 -3.634419112e-05 0.0047128072015 -1.0236043526 -0.0059892814046 0 -1 0 
0 -1 0 -0.17124091629 -0.57289691304 -0.13448604364 0.012387808155 -1.0044849323 0.054116754487 
0 0.40995780949 4.9284862975e-06 -0.0016698730382 -0.99767684974 0.0041568365541 0.013750131286 0.41310435568 -0.010249234026 
0.16516498594 -0.03766484776 0.11888971262 0 0.40508080024 -1.1317962981e-05 0 0.39374558319 -0.0047274651976 
-0.0006249839803 0.39654364795 -0.0035443033661 0 0.41049660782 0 -0.0047128072015 -0.97639564745 0.0059892814046 
0 0.40998550795 0 -0.00014574780339 -0.9878576239 -0.013103090809 0 0.44057032594 1.1204648326e-05 
-0.10261538139 -0.61378662167 -0.019208162786 0.10261538139 0.024450565892 0.019208162786 0 -1 0 
0 -1 8.088568831e-19 0.02717005516 0.18182771144 0.004990411836 0.32607506076 -0.13831851213 -0.20180837672 
-0.0051518002829 -1.0074981052 0.0089462542549 0.003859025224 -0.98573924459 0.0030514078836 0 -0.9721303155 0 
-0.0030995011966 0.4005287818 -0.0015598553611 -0.26618017517 -0.56735765787 0.21232770592 0.0050184951068 -0.98608817937 0.010670165464 
0 -0.9721303155 2.6243361572e-14 0.0017389604782 0.39882328398 -0.0017389604782 0.0069674211246 -1 0.0069674211245 
-0.00093621115373 -0.97397809116 0.0035875512483 -0.055655422775 -0.9721303155 2.3470516622e-14 0.055655422775 -0.9721303155 -2.3470112193e-14 
-0.094443766541 -0.99099508957 0.0067677813099 0.0090537897323 -1.0050710616 -0.11989829479 0.0003178502612 -1.0164391779 0.0014461503232 
0 -0.9721303155 -2.6243361572e-14 -0.0053444608278 0.09390465394 -0.0053444608277 -0.0098478849027 0.19480293708 -0.01835862255 
-0.026301618679 0.19420349068 -0.026301618679 0 -1 -0.013934842249 0.0047648130563 -0.97506450167 4.0329564938e-05 
0.090986150552 -1.000384402 0.10391367997 -0.01317286668 -1.0069206427 -0.011830734102 -0.010378700774 0.39067777922 0.0041577869807 
-0.0022819043593 0.094273287817 -0.0045601714405 0.10677843795 0.013812465805 -0.05889721647 -0.0082747673683 0.24132631806 -0.0082925593749 
0.090991702907 0.041920777393 -0.17142383997 0.050307472457 -0.061266872548 -0.00070941091907 -0.023001191132 0.042974411243 -0.023000978758 
-0.32236655344 -0.81779022033 -0.050295707581 -0.091472869173 -0.54760550676 -0.01458051581 0.009752368289 -0.99462304415 0 
-0.0047648130563 -1.0249354983 -4.0329564938e-05 -0.0069674211245 -0.99303257888 -0.0069674211245 0 -1 0 
0.0053175394928 -1.0190042628 0.0056724749665 0 -0.9721303155 8.088568831e-19 -0.14268035843 -0.90556523453 0.12864080578 
0.063051848601 -0.74623696965 -0.29873497711 -0.21882851343 -0.75820924351 -0.060023755461 0.094610552457 0.1771568544 -0.11769341558 
-0.20550089159 -0.83427103813 0.039760439407 0 -1 0 -0.011593523347 -0.70954182269 -0.011543229584 
0 -1.0278696845 0 0.0069674211245 -0.97909773663 0.0069674211245 0 -0.9721303155 0 
0.0001101853578 0.40114357246 -0.0010999256927 -0.00039089860094 0.11455369985 -0.0003921878874 0.059074801642 -0.021803948578 0.064979685975 
0.0052454421168 -0.97592621287 0.00031780998075 0.0014095598066 -1.0487781845 0.0014095598066 0.033712270953 -0.97759866889 0 
-0.0018042270737 -0.93756425655 -0.0018042270738 0.039814523199 -0.94016424032 -0.0066430906082 0 -1.0278696845 -5.7046249395e-14 
0.0011427222985 0.38876322421 0.00064935020248 0.032177223197 -0.15534050735 0.058925707106 0.0055925791796 -0.97515233517 0.018930585402 
0 -1.0278696845 0 -0.0022357930233 -0.9708917541 -0.002153005058 0 0.41007381017 0 
0.13072388607 0.039912794822 0.1318178847 -0.0016610994383 0.29654940525 0.0087496036546 0.053464672713 -0.0031395208882 -0.21811192042 
0 -1 0 0 -0.9721303155 0.013934842249 -0.0012004628977 0.38676258401 -0.00065895066189 
-0.0055925791796 -0.99001055921 0.0019716779715 -0.13848294923 -0.52517893496 0.3306956586 -0.0067172086632 0.56567410001 0.037516284279 
0 -1.0278696845 0 0 -1 0 0 -0.9721303155 8.088568831e-19 
0 0.39882697079 0 0 0.39925497113 0 0 -0.99303257888 8.088568831e-19 
0.0052880434447 -1.0004984641 -0.015408349461 0.00056348824668 0.40152978625 0.00027402949384 0.0023122065005 0.39628274053 0.0023597342796 
-0.00050609589664 0.39878430253 -0.00032365808807 0 0.39875819248 -0.0097057056303 0 -1 0 
0.0069674211245 -1 -0.0069674211245 0 -1 0 -0.0052880434447 -1.006468957 0.0084409283367 
0 0.39872827304 0 0 0.38755395842 -0.0050852537353 -8.0938774001e-06 0.39894161244 0 
-0.0008064506435 -0.99196076729 0.011645257734 0 -0.9721303155 0 1.3774428291e-14 -1.0069674211 0.020902263374 
0.0069852072671 -0.97518146925 -0.0026621151977 0.0002436659938 0.41148920957 0.0063921664547 -0.0033082998542 0.13377592098 -0.0033247496929 
0 -1.0278696845 -8.088568831e-19 -0.0046666478446 0.28784143851 -0.0046798590522 -0.0034475634525 -0.97061866319 0.015296391299 
0 -1.0139348422 0.013934842249 -0.0067776025484 -1.0107819949 -0.011329690883 0.0067776025484 -1.0310225318 -0.0026051513661 
0 -1 -8.088568831e-19 0.0014610539288 -0.96504033019 -0.0073217767032 -0.0027311931712 -0.99953231016 -0.0033772704618 
0.00043407114166 -1.0152295393 -0.01351538144 0.0017521974428 -1.0007942276 0.004261372227 0.003430585782 0.26858144658 0.036345321829 
0.011418066286 0.44714508742 0.13056772323 0.033507479586 -1.0363898676 -0.00067931275374 -0.041870913108 -0.95452725751 0.00084886846854 
-0.035841472273 -1.0574246358 -0.02113637998 0.010182988137 -0.9852738893 -0.15273805012 0.005518295417 0.17429916154 0.0022929424197 
0.01170138735 0.3169036846 0.0080076877137 0.00012723140704 0.41108127166 -0.017584560188 0 -0.97759285271 -0.033720083532 
0 -0.95406131622 -0.039815951565 0.0053209438579 -0.84405251017 -0.062115454043 0 -1.0278696845 0 
-0.01086481015 -0.99088102156 -0.0014829420972 0.01162165908 -0.23342190751 -0.071885248004 -0.011767700172 -0.90183347141 0.039855489275 
0.056750103147 -0.8757144392 0.041190442277 -0.076054788487 -0.79470957764 0.066755715261 0.0044523357885 -0.96406019354 0.03981452297 
-0.0080737663386 -0.98197133553 -0.011981175661 0.0037069681493 -0.7674911207 0.21656770496 0.0025478505678 0.10512463899 -0.0016146382376 
-0.0094908496954 -0.37141649005 0.12357351632 0.017383607347 0.18535627107 -0.010092439058 -0.10023065752 -0.50803542736 -0.20055561369 
0.12102399357 -0.32220045698 -0.0013235277117 -0.0040519718102 -1.0265604486 0.080352346518 -0.011843448631 -1.0112477606 -7.7035060347e-05 
-0.00031827913085 -1.0008416938 -0.010697984612 -0.0024337296701 -1.0078006934 -0.0069898570662 -0.0069674211245 -0.9721303155 -0.0069674211245 
0.023628945938 -0.42880694554 0.023628945955 -0.024804024756 -0.089867441151 -0.024804024759 -1.3393861127e-14 -1 3.3310748588e-14 
-0.0053004557513 -0.99134282185 -0.00082957340757 0.0028057734969 -0.98814175698 -0.0088280046998 -0.0041088770025 0.10568536697 -0.0042863489431 