# vtk DataFile Version 5.1
Generated by LIGGGHTS
ASCII
DATASET POLYDATA
POINTS 400 float
-0.142559 0.0579711 -0.144076 -0.0649108 0.0563245 -0.144385 -0.0509462 0.0586923 -0.143137 
-0.0233166 0.0562784 -0.144203 -0.109464 0.0653467 -0.142933 -0.0650732 0.0666385 -0.142664 
-0.0233047 0.0673817 -0.142287 -0.0066139 0.0675042 -0.14512 -0.144866 0.0697183 -0.144871 
-0.110458 0.0758127 -0.142865 -0.0918875 0.0683293 -0.144964 -0.0996419 0.0817188 -0.144227 
-0.115442 0.0563114 -0.142771 -0.0390371 0.0608617 -0.138017 -0.143433 0.0645614 -0.136501 
-0.119704 0.0669729 -0.138577 -0.128515 0.0701702 -0.143225 -0.0513821 0.0808616 -0.136249 
-0.136271 0.0564877 -0.1334 -0.127336 0.0641334 -0.131567 -0.0784734 0.0550697 -0.128269 
-0.0498097 0.0550512 -0.131954 -0.0590189 0.0632396 -0.134559 -0.102026 0.0635202 -0.132487 
-0.14299 0.0554254 -0.123273 -0.0592276 0.0577968 -0.126231 -0.0408934 0.0554557 -0.124187 
-0.134888 0.0616702 -0.121005 -0.104897 0.0624108 -0.122302 -0.0386695 0.0651281 -0.120844 
-0.0257031 0.0641539 -0.124756 -0.0997798 0.0563621 -0.112234 -0.0215418 0.0578446 -0.11634 
-0.0797578 0.0677297 -0.112771 -0.107511 0.0603764 -0.103636 -0.056937 0.0576765 -0.108605 
-0.0270468 0.0622693 -0.107776 -0.0128669 0.0633055 -0.110078 -0.0804063 0.0944874 -0.11224 
-0.00721869 0.0594544 -0.0988064 -0.057286 0.0682806 -0.100397 -0.0435668 0.0696143 -0.0976434 
-0.0376925 0.0866587 -0.103091 -0.107776 0.0569123 -0.0903549 -0.028629 0.057788 -0.0935664 
-0.143822 0.0665361 -0.0899851 -0.0798538 0.0643485 -0.0913765 -0.00474845 0.079889 -0.0939075 
-0.138077 0.086122 -0.0915105 -0.0689659 0.0548302 -0.0870051 -0.0401073 0.0665893 -0.0848281 
-0.0862438 0.0761802 -0.0889079 -0.0301495 0.0705842 -0.0849105 -0.051051 0.104775 -0.0825403 
-0.106421 0.0557577 -0.0789346 -0.110523 0.0673906 -0.0753108 -0.10356 0.10857 -0.0790396 
-0.0848825 0.0575906 -0.0727564 -0.0534015 0.0652822 -0.0693311 -0.115325 0.101116 -0.0710411 
-0.00982959 0.0554914 -0.0592334 -0.117811 0.0693531 -0.062455 -0.0873998 0.058771 -0.0586425 
-0.062447 0.0815439 -0.0670827 -0.0233917 0.0981895 -0.0605347 -0.117427 0.0561235 -0.0461684 
-0.137961 0.0635127 -0.0466276 -0.100202 0.0701209 -0.0495548 -0.0612333 0.0733961 -0.0456392 
-0.0825843 0.0906045 -0.0479796 -0.0467185 0.0888498 -0.0526364 -0.0121407 0.0985965 -0.0522173 
-0.0529626 0.106353 -0.0495144 -0.0618273 0.0595317 -0.0450917 -0.0191898 0.0626656 -0.0409694 
-0.104349 0.0660702 -0.0326997 -0.127583 0.0832977 -0.0307986 -0.06242 0.077427 -0.0329285 
-0.0765352 0.0643943 -0.0291835 -0.0959482 0.0602883 -0.0196338 -0.0779483 0.0570957 -0.0202039 
-0.0488331 0.0631048 -0.019761 -0.029941 0.0605832 -0.0199441 -0.0878938 0.0664966 -0.0178389 
-0.0611672 0.0634292 -0.0194717 -0.0802284 0.0554648 -0.00813396 -0.0588697 0.0558319 -0.0132862 
-0.0741078 0.0629506 -0.0118247 -0.0704681 0.0717728 -0.0168626 -0.0165094 0.100356 -0.0110503 
-0.115682 0.0605172 -0.00468659 -0.0971518 0.055116 -0.00101148 -0.0866554 0.0548864 -0.000453826 
-0.0687096 0.0553229 -0.004209 -0.0874972 0.0648425 -0.00677776 -0.0409549 0.06973 -0.00115547 
-0.0701578 0.0706175 -0.00531203 -0.0260043 0.100174 -0.00271563 -0.000960556 0.0629861 -0.0824997 
-0.134619 0.0572918 0.00609722 -0.113049 0.0564912 0.00712764 -0.104365 0.060751 0.00439998 
-0.0744604 0.0557765 0.00414947 -0.0952136 0.067155 0.0017421 -0.0773013 0.066778 0.000861382 
-0.000522352 0.0649794 0.00550236 -0.060761 0.0722864 0.00588183 -0.00301993 0.0854606 0.00300478 
-0.142861 0.0588021 0.0142722 -0.0979536 0.0607664 0.0120504 -0.0893687 0.0551745 0.0109631 
-0.079252 0.0550682 0.015368 -0.0493013 0.0580745 0.00866206 -0.0187286 0.0559127 0.0147701 
-0.00822112 0.0573545 0.0122128 -0.123167 0.0651062 0.00943947 -0.0731425 0.0629919 0.0126153 
-0.0587326 0.062443 0.0144024 -0.0487305 0.0674814 0.0132868 -0.144919 0.0742074 0.00691126 
-0.136787 0.0681675 0.0114257 -0.082768 0.0718364 0.0131458 -0.112286 0.0779348 0.00820464 
-0.0201983 0.0819199 0.0066914 -0.1305 0.0550461 0.0178606 -0.116202 0.0556724 0.0172113 
-0.0496997 0.0572049 0.0220261 -0.0293998 0.0602668 0.0153809 -0.136918 0.0629741 0.0216571 
-0.144803 0.0559399 0.0257676 -0.113197 0.0557636 0.0301279 -0.0964256 0.0554806 0.0249208 
-0.117843 0.0639691 0.023217 -0.0652478 0.0608901 0.0254197 -0.000878314 0.0621835 0.0258325 
-0.0865052 0.0764822 0.0242919 -0.0177703 0.0691903 0.0251746 -0.060655 0.0985284 0.0231674 
-0.0574998 0.0558082 0.0307552 -0.00848335 0.0604491 0.0340008 -0.144834 0.0648653 0.0315546 
-0.102232 0.0779447 0.0361493 -0.0425863 0.0631817 0.0367712 -0.123553 0.0564765 0.0438852 
-0.0304182 0.0601567 0.0438017 -0.0639304 0.0650223 0.0392995 -0.140747 0.0691228 0.0402416 
-0.128155 0.0789801 0.0446466 -0.0660782 0.0888073 0.0377727 -0.0482933 0.0566333 0.0509018 
-0.099614 0.0812293 0.0496332 -0.0894583 0.0914083 0.0450705 -0.0902845 0.134416 0.0497271 
-0.0660094 0.0579118 0.0586998 -0.114125 0.0659414 0.0556444 -0.0739061 0.0658234 0.0508037 
-0.0401407 0.0793607 0.0590509 -0.106713 0.0559066 0.0633674 -0.0911438 0.0613429 0.0627777 
-0.106768 0.0966645 0.062131 -0.0515694 0.105366 0.0621647 -0.083456 0.0585499 0.0726267 
-0.129928 0.0947635 0.0739974 -0.139752 0.0985812 0.0708257 -0.0517667 0.101592 0.0729549 
-0.0951461 0.0608389 0.0789522 -0.0617677 0.0621271 0.0834069 -0.00652595 0.0630288 0.0792213 
-0.11645 0.0735058 0.0814984 -0.0419464 0.0638363 0.0880628 -0.141346 0.0865572 0.0840536 
-0.0260893 0.0914901 0.0828775 -0.120296 0.0989667 0.0836254 -0.111638 0.0691604 0.091724 
-0.0806509 0.0653468 0.0918804 -0.0656252 0.0657343 0.092469 -0.0169162 0.0730776 0.0973861 
-0.121205 0.0637019 0.100707 -0.140335 0.0790678 0.104455 -0.0288044 0.0733373 0.101329 
-0.081193 0.087203 0.0998133 -0.0291366 0.104398 0.100997 -0.0579011 0.0584135 0.111792 
-0.109689 0.0610008 0.113555 -0.0421174 0.0696154 0.114234 -0.0289344 0.0717464 0.112723 
-0.0595346 0.0681277 0.113061 -0.0637338 0.0576896 0.120266 -0.132094 0.0655851 0.121024 
-0.0502117 0.0558333 0.12335 -0.0180355 0.0689959 0.124315 -0.125769 0.0597924 0.130568 
-0.113883 0.0637082 0.130328 -0.0484974 0.0801621 0.13421 -0.0350474 0.0549208 0.137091 
-0.0589823 0.0996513 0.141952 -0.0738415 0.0580574 0.143578 -0.052042 0.0568797 0.144394 
-0.0915684 0.0686343 0.143069 -0.0654282 0.0664296 0.143653 -0.0342926 0.0676083 0.143894 
-0.0535761 0.081144 0.143691 0.030319 0.0566838 -0.142804 0.0401358 0.058739 -0.144687 
0.105755 0.0564638 -0.143723 0.139321 0.0584742 -0.144524 0.00248558 0.0623922 -0.144919 
0.0134294 0.0647776 -0.144872 0.0235974 0.06444 -0.14493 0.144463 0.0694362 -0.144608 
0.021526 0.0742475 -0.144287 0.0470269 0.0779096 -0.143513 0.0140923 0.0552239 -0.141763 
0.0433069 0.0581032 -0.135031 0.0560808 0.0553808 -0.142042 0.0351404 0.0653119 -0.138378 
0.128795 0.0654882 -0.140959 0.0350487 0.0585569 -0.129406 0.0658861 0.0573404 -0.134383 
0.132328 0.0550408 -0.13363 0.141127 0.0585321 -0.130302 0.00357594 0.0624508 -0.128544 
0.0177659 0.0613973 -0.134985 0.0491815 0.062288 -0.128048 0.118495 0.0646206 -0.134264 
0.0209497 0.0777692 -0.127838 0.119645 0.0559179 -0.122862 0.01193 0.0637556 -0.120793 
0.0244251 0.0601295 -0.122782 0.0756038 0.0625864 -0.121997 0.00456677 0.0711958 -0.122134 
0.0257971 0.0701213 -0.122401 0.0472529 0.055469 -0.112978 0.101219 0.0602495 -0.119726 
0.0594564 0.061169 -0.118972 0.0279356 0.0765557 -0.114011 0.0279069 0.0619871 -0.112064 
0.0384124 0.0632047 -0.110879 0.0940472 0.0557292 -0.112658 0.0186599 0.0682027 -0.111309 
0.11814 0.072124 -0.105156 0.0128046 0.0568376 -0.0993923 0.0281714 0.0553379 -0.101573 
0.0521447 0.055016 -0.101673 0.0955554 0.0570262 -0.102304 0.034813 0.0645728 -0.0990183 
0.046144 0.0640425 -0.0973269 0.056732 0.0662489 -0.0989142 0.0857942 0.0872999 -0.0993301 
0.0605568 0.0563009 -0.095631 0.0718058 0.0596499 -0.0951894 0.136265 0.0673716 -0.0936064 
0.0114077 0.0744858 -0.09574 0.0980387 0.0694647 -0.0945751 0.012217 0.0581651 -0.082922 
0.051198 0.0580658 -0.0886198 0.0688751 0.0550685 -0.0811973 0.106054 0.0573859 -0.0893352 
0.0916716 0.0718911 -0.00669498 0.0802875 0.0723178 -0.0860646 0.0281796 0.0810135 -0.0887584 
0.090249 0.0833009 -0.0858916 0.0432068 0.0609364 -0.0767447 0.0578656 0.0618598 -0.0817048 
0.0938718 0.0642515 -0.0806329 0.0266465 0.0612598 -0.0712322 0.0791614 0.0718604 -0.0727357 
0.104854 0.0668776 -0.0699829 0.0379628 0.069079 -0.0698659 0.0628861 0.0774807 -0.0716245 
0.0229785 0.0575398 -0.062048 0.00129978 0.0574393 -0.0582586 0.0122475 0.0596632 -0.0538419 
0.0298886 0.0604612 -0.053105 0.0482254 0.0551411 -0.0546998 0.0853605 0.0703923 -0.0564998 
0.0658769 0.0783969 -0.0532533 0.116199 0.0737331 -0.0556879 0.0385705 0.0618239 -0.0472477 
0.057421 0.0620987 -0.0472365 0.136678 0.0562811 -0.0487932 0.00776891 0.0618589 -0.0451502 
0.0554233 0.0768803 -0.0492342 0.0539675 0.096622 -0.0431789 0.0682018 0.0615799 -0.0405516 
0.12835 0.0586202 -0.0410247 0.0841556 0.0707405 -0.0395446 0.130034 0.069385 -0.0375415 
0.0155556 0.0900338 -0.042851 0.049159 0.065548 -0.0353708 0.0374461 0.0907307 -0.0329653 
0.0615547 0.0603649 -0.0308308 0.133827 0.0557383 -0.0293143 0.0190596 0.0625861 -0.0269865 
0.112011 0.0806413 -0.0278898 0.143805 0.0572977 -0.0174449 0.143298 0.0678782 -0.0161321 
0.0987576 0.0597089 -0.0116552 0.127654 0.0551879 -0.0121629 0.0558619 0.054652 -0.0135712 
0.143901 0.0608282 -0.00355677 0.0143217 0.0676271 -0.000856331 0.0276846 0.0689104 -0.00689965 
0.0458573 0.0625147 -0.00494426 0.0742644 0.0700614 -0.00175716 0.047451 0.0551012 0.00217114 
0.0635355 0.0551771 0.00604471 0.0830332 0.0599845 4.60012e-05 0.106041 0.0677072 0.000110133 
0.053026 0.068006 0.00476935 0.106774 0.0855335 0.00304098 0.0546545 0.0551542 0.0125352 
0.077673 0.0562109 0.0116655 0.024911 0.0672062 0.0118156 0.0644885 0.0651359 0.00638395 
0.0978527 0.0656493 0.0125123 0.118374 0.0632165 0.0128148 0.0216134 0.0878219 0.00851794 
0.0616807 0.0557389 0.020874 0.0745175 0.0553162 0.021398 0.104374 0.0561821 0.0166165 
0.141918 0.0614726 0.0150476 0.0974767 0.0833285 0.020728 0.0799872 0.0588677 0.0311408 
0.0926303 0.0585332 0.0291284 0.113361 0.0561356 0.0266276 0.129709 0.0555601 0.0251457 
0.025347 0.059905 0.0237644 0.101006 0.0662504 0.0243749 0.13365 0.0596178 0.0340224 
0.0157614 0.0696355 0.0346061 0.0944295 0.0651842 0.0361465 0.108911 0.066877 0.0336652 
0.0941072 0.0828512 0.0353986 0.0196597 0.0579759 0.0390111 0.0371822 0.0578527 0.041594 
0.0717398 0.0548848 0.0428091 0.115778 0.055319 0.0383069 0.128155 0.0549922 0.0411977 
0.142984 0.0562532 0.039292 0.0755676 0.0642138 0.04175 0.10571 0.0606223 0.0412867 
0.114582 0.0651911 0.0435922 0.105065 0.0786766 0.0438899 0.0315408 0.0821922 0.0388374 
0.0282969 0.0562889 0.0462279 0.0906667 0.0605551 0.048776 0.132823 0.0589417 0.0502818 
0.111488 0.0581463 0.0611642 0.0930775 0.0586066 0.0614268 0.00125152 0.0735341 0.0531548 
0.0852251 0.0666893 0.0569815 0.000582045 0.0686823 0.0638678 0.0140344 0.064611 0.0598348 
0.134551 0.0723614 0.0610074 0.0427124 0.0834509 0.0614313 0.0997626 0.092858 0.0672958 
0.012603 0.0549259 0.0686305 0.00435036 0.0618871 0.0709153 0.0411816 0.0678875 0.0699938 
0.0558393 0.0672223 0.0669869 0.135137 0.0854033 0.0713753 0.108314 0.0995475 0.0738152 
0.0116261 0.0558199 0.0799446 0.0825553 0.0552078 0.0840791 0.024528 0.0747625 0.0863515 
0.0864875 0.0728352 0.0896888 0.119884 0.0753487 0.0844002 0.0346456 0.0798066 0.0890181 
0.018517 0.0563428 0.0901868 0.0542964 0.0561158 0.0994907 0.0575089 0.0667939 0.0894724 
0.124184 0.065254 0.0979815 0.0418445 0.0979846 0.0895585 0.142899 0.0636332 0.0994451 
0.0699824 0.0728052 0.10419 0.0187739 0.0556787 0.110651 0.0282031 0.0561826 0.107066 
0.137682 0.0575316 0.107757 0.0198823 0.0659488 0.109241 0.114397 0.0737499 0.104981 
0.0208805 0.0551857 0.123238 0.0650246 0.0617767 0.115385 0.0441698 0.0653736 0.115013 
0.0767343 0.0854625 0.117822 0.0434359 0.0966587 0.116812 0.0433247 0.0556072 0.123375 
0.0741705 0.0555991 0.123255 0.138352 0.0602191 0.118505 0.0142468 0.0900219 0.12271 
0.127722 0.0922557 0.129239 0.0806615 0.060041 0.139866 0.142451 0.05744 0.137815 
0.0431366 0.0669556 0.136591 0.102385 0.0752173 0.137094 0.00455496 0.105761 0.139745 
0.127343 0.0669597 0.143677 0.067576 0.0714481 0.144486 0.0142738 0.0951489 0.14476 
0.114719 0.100671 0.143277 
VERTICES 401 400
OFFSETS vtktypeint64
0 1 2 3 4 5 6 7 8 
9 10 11 12 13 14 15 16 17 
18 19 20 21 22 23 24 25 26 
27 28 29 30 31 32 33 34 35 
36 37 38 39 40 41 42 43 44 
45 46 47 48 49 50 51 52 53 
54 55 56 57 58 59 60 61 62 
63 64 65 66 67 68 69 70 71 
72 73 74 75 76 77 78 79 80 
81 82 83 84 85 86 87 88 89 
90 91 92 93 94 95 96 97 98 
99 100 101 102 103 104 105 106 107 
108 109 110 111 112 113 114 115 116 
117 118 119 120 121 122 123 124 125 
126 127 128 129 130 131 132 133 134 
135 136 137 138 139 140 141 142 143 
144 145 146 147 148 149 150 151 152 
153 154 155 156 157 158 159 160 161 
162 163 164 165 166 167 168 169 170 
171 172 173 174 175 176 177 178 179 
180 181 182 183 184 185 186 187 188 
189 190 191 192 193 194 195 196 197 
198 199 200 201 202 203 204 205 206 
207 208 209 210 211 212 213 214 215 
216 217 218 219 220 221 222 223 224 
225 226 227 228 229 230 231 232 233 
234 235 236 237 238 239 240 241 242 
243 244 245 246 247 248 249 250 251 
252 253 254 255 256 257 258 259 260 
261 262 263 264 265 266 267 268 269 
270 271 272 273 274 275 276 277 278 
279 280 281 282 283 284 285 286 287 
288 289 290 291 292 293 294 295 296 
297 298 299 300 301 302 303 304 305 
306 307 308 309 310 311 312 313 314 
315 316 317 318 319 320 321 322 323 
324 325 326 327 328 329 330 331 332 
333 334 335 336 337 338 339 340 341 
342 343 344 345 346 347 348 349 350 
351 352 353 354 355 356 357 358 359 
360 361 362 363 364 365 366 367 368 
369 370 371 372 373 374 375 376 377 
378 379 380 381 382 383 384 385 386 
387 388 389 390 391 392 393 394 395 
396 397 398 399 400 
CONNECTIVITY vtktypeint64
0 1 2 3 4 5 6 7 8 
9 10 11 12 13 14 15 16 17 
18 19 20 21 22 23 24 25 26 
27 28 29 30 31 32 33 34 35 
36 37 38 39 40 41 42 43 44 
45 46 47 48 49 50 51 52 53 
54 55 56 57 58 59 60 61 62 
63 64 65 66 67 68 69 70 71 
72 73 74 75 76 77 78 79 80 
81 82 83 84 85 86 87 88 89 
90 91 92 93 94 95 96 97 98 
99 100 101 102 103 104 105 106 107 
108 109 110 111 112 113 114 115 116 
117 118 119 120 121 122 123 124 125 
126 127 128 129 130 131 132 133 134 
135 136 137 138 139 140 141 142 143 
144 145 146 147 148 149 150 151 152 
153 154 155 156 157 158 159 160 161 
162 163 164 165 166 167 168 169 170 
171 172 173 174 175 176 177 178 179 
180 181 182 183 184 185 186 187 188 
189 190 191 192 193 194 195 196 197 
198 199 200 201 202 203 204 205 206 
207 208 209 210 211 212 213 214 215 
216 217 218 219 220 221 222 223 224 
225 226 227 228 229 230 231 232 233 
234 235 236 237 238 239 240 241 242 
243 244 245 246 247 248 249 250 251 
252 253 254 255 256 257 258 259 260 
261 262 263 264 265 266 267 268 269 
270 271 272 273 274 275 276 277 278 
279 280 281 282 283 284 285 286 287 
288 289 290 291 292 293 294 295 296 
297 298 299 300 301 302 303 304 305 
306 307 308 309 310 311 312 313 314 
315 316 317 318 319 320 321 322 323 
324 325 326 327 328 329 330 331 332 
333 334 335 336 337 338 339 340 341 
342 343 344 345 346 347 348 349 350 
351 352 353 354 355 356 357 358 359 
360 361 362 363 364 365 366 367 368 
369 370 371 372 373 374 375 376 377 
378 379 380 381 382 383 384 385 386 
387 388 389 390 391 392 393 394 395 
396 397 398 399 
POINT_DATA 400
FIELD FieldData 8
id 1 400 int
3781 2648 3884 3937 2755 3744 3959 3773 3801 
3023 3970 3994 3745 3726 3894 3785 3823 3917 
2739 3907 3586 2901 3931 3987 3024 3903 3296 
3981 3757 3873 3960 3685 3844 3180 3814 3830 
3852 3025 3403 3766 3802 3242 3734 3727 3858 
3297 3359 3793 2823 3976 3686 3824 3711 2756 
2961 3716 3740 3949 3774 3026 3877 3243 3932 
3767 3404 3758 3853 3786 2824 3687 3908 3181 
2825 3405 2962 3878 3759 3809 3360 3135 3918 
3895 3835 3919 3808 3938 3787 3961 3996 3133 
3815 3885 3720 3975 3939 3845 3995 3134 3731 
3896 2902 3182 3746 3909 3971 3263 3940 3519 
3688 3831 3631 3775 3782 2963 3879 3920 3962 
3747 3846 3925 3982 3988 3950 3244 3825 3803 
3406 3810 3955 3836 3760 3768 3854 3788 3926 
3794 3587 3816 3461 3298 3863 3783 3989 3728 
3847 3910 3721 3941 3735 3136 3769 2826 3027 
3761 3859 3951 3795 3864 3911 3299 2757 3754 
3407 3245 2964 3904 3874 3765 3776 3898 3736 
3588 3183 3865 3837 3880 3817 3886 3804 2509 
3748 2649 3963 3933 3866 3855 3997 3956 3887 
3984 3983 3921 3897 3690 3954 3722 3689 3848 
3729 3875 3977 3632 3818 3161 3942 3876 3972 
3927 3849 3905 3952 3838 3899 2927 3811 3789 
3934 3762 3900 3717 3867 3943 3964 3860 3741 
3978 3965 3730 3888 3440 3749 3922 3665 3944 
2989 3796 3770 2867 3957 3208 3839 3819 3737 
2748 3812 3889 3856 3784 3985 3755 3945 3868 
3691 3712 2481 2591 3777 3869 3614 3826 3840 
3666 3881 3162 3441 3805 3832 3386 3999 3262 
3763 2749 3915 3891 3385 3841 3813 3827 3929 
3778 3850 2482 3797 3518 3928 2483 3842 2751 
2750 3613 3713 3806 3946 3990 3923 3890 3913 
3324 3914 3973 3912 3882 3738 3966 3901 3714 
3779 3870 3851 3991 3771 3790 3764 2790 3723 
3820 3828 3084 3750 3667 3692 3442 3742 3892 
3718 2690 3791 3986 3732 3947 3953 3974 3979 
3998 3924 3668 3861 2928 3751 3715 3739 3833 
3930 3807 3756 3719 3916 3958 3902 3980 3834 
4000 3862 3906 3780 3821 3520 3325 3871 3798 
2484 3752 3209 3843 2868 3743 3829 3799 3443 
3857 3872 3993 3992 2752 3326 3822 3792 2550 
3772 3969 3968 3967 3800 3883 3753 3521 2753 
3725 3733 3694 3724 3948 3444 3893 3936 2754 
3693 3935 2990 3163 
type 1 400 int
2 2 2 2 2 2 2 2 2 
2 2 2 2 2 2 2 2 2 
2 2 2 2 2 2 2 2 2 
2 2 2 2 2 2 2 2 2 
2 2 2 2 2 2 2 2 2 
2 2 2 2 2 2 2 2 2 
2 2 2 2 2 2 2 2 2 
2 2 2 2 2 2 2 2 2 
2 2 2 2 2 2 2 2 2 
2 2 2 2 2 2 2 2 2 
2 2 2 2 2 2 2 2 2 
2 2 2 2 2 2 2 2 2 
2 2 2 2 2 2 2 2 2 
2 2 2 2 2 2 2 2 2 
2 2 2 2 2 2 2 2 2 
2 2 2 2 2 2 2 2 2 
2 2 2 2 2 2 2 2 2 
2 2 2 2 2 2 2 2 2 
2 2 2 2 2 2 2 2 2 
2 2 2 2 2 2 2 2 2 
2 2 2 2 2 2 2 2 2 
2 2 2 2 2 2 2 2 2 
2 2 2 2 2 2 2 2 2 
2 2 2 2 2 2 2 2 2 
2 2 2 2 2 2 2 2 2 
2 2 2 2 2 2 2 2 2 
2 2 2 2 2 2 2 2 2 
2 2 2 2 2 2 2 2 2 
2 2 2 2 2 2 2 2 2 
2 2 2 2 2 2 2 2 2 
2 2 2 2 2 2 2 2 2 
2 2 2 2 2 2 2 2 2 
2 2 2 2 2 2 2 2 2 
2 2 2 2 2 2 2 2 2 
2 2 2 2 2 2 2 2 2 
2 2 2 2 2 2 2 2 2 
2 2 2 2 2 2 2 2 2 
2 2 2 2 2 2 2 2 2 
2 2 2 2 2 2 2 2 2 
2 2 2 2 2 2 2 2 2 
2 2 2 2 2 2 2 2 2 
2 2 2 2 2 2 2 2 2 
2 2 2 2 2 2 2 2 2 
2 2 2 2 2 2 2 2 2 
2 2 2 2 
i 3 400 int
0 0 0 0 0 0 0 0 0 
0 0 0 0 0 0 0 0 0 
0 0 0 0 0 0 0 0 0 
0 0 0 0 0 0 0 0 0 
0 0 0 0 0 0 0 0 0 
0 0 0 0 0 0 0 0 0 
0 0 0 0 0 0 0 0 0 
0 0 0 0 0 0 0 0 0 
0 0 0 0 0 0 0 0 0 
0 0 0 0 0 0 0 0 0 
0 0 0 0 0 0 0 0 0 
0 0 0 0 0 0 0 0 0 
0 0 0 0 0 0 0 0 0 
0 0 0 0 0 0 0 0 0 
0 0 0 0 0 0 0 0 0 
0 0 0 0 0 0 0 0 0 
0 0 0 0 0 0 0 0 0 
0 0 0 0 0 0 0 0 0 
0 0 0 0 0 0 0 0 0 
0 0 0 0 0 0 0 0 0 
0 0 0 0 0 0 0 0 0 
0 0 0 0 0 0 0 0 0 
0 0 0 0 0 0 0 0 0 
0 0 0 0 0 0 0 0 0 
0 0 0 0 0 0 0 0 0 
0 0 0 0 0 0 0 0 0 
0 0 0 0 0 0 0 0 0 
0 0 0 0 0 0 0 0 0 
0 0 0 0 0 0 0 0 0 
0 0 0 0 0 0 0 0 0 
0 0 0 0 0 0 0 0 0 
0 0 0 0 0 0 0 0 0 
0 0 0 0 0 0 0 0 0 
0 0 0 0 0 0 0 0 0 
0 0 0 0 0 0 0 0 0 
0 0 0 0 0 0 0 0 0 
0 0 0 0 0 0 0 0 0 
0 0 0 0 0 0 0 0 0 
0 0 0 0 0 0 0 0 0 
0 0 0 0 0 0 0 0 0 
0 0 0 0 0 0 0 0 0 
0 0 0 0 0 0 0 0 0 
0 0 0 0 0 0 0 0 0 
0 0 0 0 0 0 0 0 0 
0 0 0 0 0 0 0 0 0 
0 0 0 0 0 0 0 0 0 
0 0 0 0 0 0 0 0 0 
0 0 0 0 0 0 0 0 0 
0 0 0 0 0 0 0 0 0 
0 0 0 0 0 0 0 0 0 
0 0 0 0 0 0 0 0 0 
0 0 0 0 0 0 0 0 0 
0 0 0 0 0 0 0 0 0 
0 0 0 0 0 0 0 0 0 
0 0 0 0 0 0 0 0 0 
0 0 0 0 0 0 0 0 0 
0 0 0 0 0 0 0 0 0 
0 0 0 0 0 0 0 0 0 
0 0 0 0 0 0 0 0 0 
0 0 0 0 0 0 0 0 0 
0 0 0 0 0 0 0 0 0 
0 0 0 0 0 0 0 0 0 
0 0 0 0 0 0 0 0 0 
0 0 0 0 0 0 0 0 0 
0 0 0 0 0 0 0 0 0 
0 0 0 0 0 0 0 0 0 
0 0 0 0 0 0 0 0 0 
0 0 0 0 0 0 0 0 0 
0 0 0 0 0 0 0 0 0 
0 0 0 0 0 0 0 0 0 
0 0 0 0 0 0 0 0 0 
0 0 0 0 0 0 0 0 0 
0 0 0 0 0 0 0 0 0 
0 0 0 0 0 0 0 0 0 
0 0 0 0 0 0 0 0 0 
0 0 0 0 0 0 0 0 0 
0 0 0 0 0 0 0 0 0 
0 0 0 0 0 0 0 0 0 
0 0 0 0 0 0 0 0 0 
0 0 0 0 0 0 0 0 0 
0 0 0 0 0 0 0 0 0 
0 0 0 0 0 0 0 0 0 
0 0 0 0 0 0 0 0 0 
0 0 0 0 0 0 0 0 0 
0 0 0 0 0 0 0 0 0 
0 0 0 0 0 0 0 0 0 
0 0 0 0 0 0 0 0 0 
0 0 0 0 0 0 0 0 0 
0 0 0 0 0 0 0 0 0 
0 0 0 0 0 0 0 0 0 
0 0 0 0 0 0 0 0 0 
0 0 0 0 0 0 0 0 0 
0 0 0 0 0 0 0 0 0 
0 0 0 0 0 0 0 0 0 
0 0 0 0 0 0 0 0 0 
0 0 0 0 0 0 0 0 0 
0 0 0 0 0 0 0 0 0 
0 0 0 0 0 0 0 0 0 
0 0 0 0 0 0 0 0 0 
0 0 0 0 0 0 0 0 0 
0 0 0 0 0 0 0 0 0 
0 0 0 0 0 0 0 0 0 
0 0 0 0 0 0 0 0 0 
0 0 0 0 0 0 0 0 0 
0 0 0 0 0 0 0 0 0 
0 0 0 0 0 0 0 0 0 
0 0 0 0 0 0 0 0 0 
0 0 0 0 0 0 0 0 0 
0 0 0 0 0 0 0 0 0 
0 0 0 0 0 0 0 0 0 
0 0 0 0 0 0 0 0 0 
0 0 0 0 0 0 0 0 0 
0 0 0 0 0 0 0 0 0 
0 0 0 0 0 0 0 0 0 
0 0 0 0 0 0 0 0 0 
0 0 0 0 0 0 0 0 0 
0 0 0 0 0 0 0 0 0 
0 0 0 0 0 0 0 0 0 
0 0 0 0 0 0 0 0 0 
0 0 0 0 0 0 0 0 0 
0 0 0 0 0 0 0 0 0 
0 0 0 0 0 0 0 0 0 
0 0 0 0 0 0 0 0 0 
0 0 0 0 0 0 0 0 0 
0 0 0 0 0 0 0 0 0 
0 0 0 0 0 0 0 0 0 
0 0 0 0 0 0 0 0 0 
0 0 0 0 0 0 0 0 0 
0 0 0 0 0 0 0 0 0 
0 0 0 0 0 0 0 0 0 
0 0 0 0 0 0 0 0 0 
0 0 0 0 0 0 0 0 0 
0 0 0 0 0 0 0 0 0 
0 0 0 
v 3 400 double
0.052996085414 -0.064962176682 -0.14386310769 -0.026010667019 -0.023333346671 -0.021128791393 0.0037691867814 0.33078605401 -0.0136301897 
0.00042695319134 0.13846042764 0.029105660503 -0.0021441907264 0.059400121159 0.046438722938 -0.071562485897 0.066795424194 0.061740958303 
-0.00066328633309 0.27334262606 0.093316999735 0.17005301697 -0.18417373403 -0.10863151015 0.013482406743 -0.024619838044 0.030989300614 
-0.060186510457 -0.096877005556 0.090358642599 0.28784689457 -0.65243370382 -0.001461396721 0.058491060856 -0.5089740009 0.030202727789 
-0.066919938381 0.03308312074 -0.11199840965 0.088754276994 0.22662720955 0.01755179333 -0.016529983124 -0.064103919288 -0.025858408641 
-0.0054188016006 -0.23108379181 0.053769937218 -0.034500365413 0.00259291276 -0.18032748727 -0.013734895208 -0.48692684303 0.10265739592 
0.12503929467 -0.089189421865 0.026756635754 0 0.410001241 0 -0.28740901424 0.024229724479 0.0046663801205 
-0.0080798866824 0.11491029134 -0.0011328419854 -0.22547495992 -0.11199051753 -0.14480088604 0.060121142566 -0.76567128365 -0.11358922901 
-0.063823259112 0.058535500158 -0.04573744739 0.069758020684 0.16779000348 0.053491277134 0.012718550083 0.067616469755 0.01425317236 
0.34398091997 -0.20015809436 0.077235193789 -0.034384732432 -0.21880976955 0.24522335313 0.14016894286 0.031811602502 0.19473319261 
-0.27164938858 -0.48596043297 0.28349605921 0.12933529232 0.042588217061 0.051919416551 0.31208578683 -0.4367738468 0.27824734041 
-0.005644904192 0.11634111591 0.004857108426 0.10565630516 -0.04783649046 0.27747699068 -0.02568388976 0.17898130461 0.043235618101 
0.059066017758 -0.21799998636 0.10430757491 0.064589212998 -0.056803386309 -0.095420423741 -0.0096575554909 0.27005267014 0.0080604148417 
0.099974090402 0.01044452285 0.084876551395 -0.040956546694 0.26237529859 -0.077021290032 0.073421974865 0.032193320907 0.26764079307 
0 0.39896583638 0 -0.014901053929 -0.088385435829 0.28332991228 0.15181603203 0.21621407064 -0.22287704021 
0.028135713549 -0.096028905037 0.39390411585 -0.097613623005 0.14261836488 -0.069878233524 0.087677839082 0.25213227295 0.15366330954 
0.048239276178 0.099225294711 0.24497616456 -0.00013041690426 0.47579155099 0.00056133515234 0.14905294577 0.19639092514 0.014893614453 
0 0.4099646538 0 -0.23522534549 0.015511879386 -0.20546539832 0 0.39895779965 -0.0048950405667 
-0.048106178465 0.087671738077 -0.021939374968 -0.21182349314 0.046633813357 -0.020952048906 -0.013439671783 0.51232874696 -0.080587636658 
0 0.39875905054 0 0.1287683514 0.19121853907 0.11076579337 -1.4485258125e-05 0.39873630553 -3.634419112e-05 
-0.10748067159 0.095648355138 0.12403656405 0.0073616794846 0.22860097262 0.0056379145434 0.27123173275 -0.4815342286 0.23692752894 
-0.004507024569 0.40045571211 -0.019038581245 0.013750131286 0.41310435568 -0.010249234026 0.21273066105 0.083784470045 0.0040210919325 
0.16177005642 -0.07644656374 -0.00059768219633 0.16516498594 -0.03766484776 0.11888971262 -0.21192915926 -0.071779856971 0.31197155673 
0 0.39374558319 -0.0047274651976 -0.21558529215 -0.019513045433 -0.17941226195 -0.0006249839803 0.39654364795 -0.0035443033661 
0 0.41049660782 0 0.32876983248 -0.031845621495 -0.32283421205 0.25500455134 -0.1417376939 -0.16062557434 
0 0.39904491296 0 0 0.40508628054 1.1391752074e-05 0.10261538139 0.024450565892 0.019208162786 
0.028636836633 -0.062673917763 -0.0038113639799 -0.14104871598 0.066372794091 -0.059408977745 0.0065298624204 0.014828212121 -0.22808395003 
0 0.38773520475 0 -0.044237452005 0.0062643316779 0.3233502501 0.22551260704 -0.065751710566 -0.078506145648 
0.069118018113 -0.24907464687 -0.37502416145 -0.0013958784807 0.13921609206 -0.0078956652324 0.053165556666 -0.20812290945 -0.030177633899 
0.12608425091 -0.35180338051 0.081152316018 -0.012030135824 -0.07105517341 -0.34916226996 -0.0030995011966 0.4005287818 -0.0015598553611 
-0.14770044765 0.17433285824 -0.010388830832 -0.15872106379 -0.12015937405 -0.065136049817 0.020930580606 0.0020588831631 -0.038652059022 
-0.00011534097061 0.40535479409 -0.00060782102608 0.068126517152 -0.27786718892 -0.019095590668 -0.018713004647 0.38875185117 7.8913229596e-15 
-0.12984303341 -0.59923929908 -0.046855505668 0.0017389604782 0.39882328398 -0.0017389604782 -0.12936023577 -0.043487840632 0.063024878278 
-0.022386265164 0.22857903466 -0.14220263536 -0.053223428274 0.081349801061 0.034071225494 -0.012816743962 -0.0079062290333 -0.016267024286 
-0.00092508814114 0.08817787858 -0.0034804767872 -0.0014556396497 0.083060012092 0.062429880765 -0.04272039942 0.25422546346 -0.12820924873 
-0.0053444608278 0.09390465394 -0.0053444608277 0.2700361566 -0.22673193438 0.088027628827 -0.026301618679 0.19420349068 -0.026301618679 
-0.074607300835 0.097862071674 -0.095754131686 0.058801559354 -0.074775090486 -0.083630652525 -0.15066381234 0.017196765551 0.10389332128 
-0.02557819765 -0.39630263102 0.19799694237 -0.0046612500061 0.15225695167 -0.13291573575 0.16447094469 -0.17118126386 -0.0015761164629 
-0.020239216445 0.14448362973 -0.086741887639 -0.34050679591 0.16933284912 -0.10032961827 0.071433029912 -0.52263062634 -0.11112769057 
0.088833910935 -0.15208735125 0.12361314911 0.12710655058 0.017310071384 0.15393163884 0.010832177371 -0.2809990286 -0.12877804316 
0.064635941461 -0.59425115093 -0.27402441149 -0.21577316024 -0.49178109651 -0.052032966726 -0.040562073389 -0.35263073234 0.0035808446457 
-0.011140416409 0.097767829241 -0.12921837017 -0.0055568292941 0.12845903212 -0.021531315474 -0.03389371726 0.051802584064 -0.01733030652 
0.018153573444 0.14155660873 0.00018539693756 0.10233813382 -0.057334312558 0.036009067924 0.05116045551 0.012819927175 0.040736418788 
0.077406443804 -0.16305025214 0.047490136105 -0.055878085168 0.018552676409 0.077319089015 0.04529813777 -0.018487324901 0.13121643403 
-0.065001341762 0.019554148352 0.081816480773 0.27514513393 -0.2381335611 0.31278527209 0.22554344398 -0.097415812676 0.18170974653 
-0.0021049833578 0.38899466784 -0.000126565171 -0.074711751139 -0.0080621039028 0.03428911449 0.14839527413 0.58811835358 0.043079860813 
-0.021848057887 0.035427487958 -0.021584731543 0.011954700993 -0.040705281738 0.17212593104 0.024141280463 -0.13330578233 0.0895867363 
-0.0020887119363 0.38986351732 -0.0070491576428 -0.0022357930233 -0.9708917541 -0.002153005058 -0.028734807798 0.24194419456 -0.0010331898798 
0.30914526625 -0.076061414229 0.017928294381 -0.19919498974 0.03461183434 0.2134277811 -0.093904947289 -0.099015431372 0.20500544521 
0.031131950044 0.032706997154 0.10031977015 0 0.41007381017 0 -0.00044574958215 0.029243049089 0.10201140501 
0.0020429030869 0.39521847008 -0.0010600737839 -0.0016610994383 0.29654940525 0.0087496036546 -0.0067172086632 0.56567410001 0.037516284279 
-0.032686606129 0.21366618101 -0.030099490058 0.012190777852 0.32929773123 0.012633784709 -0.3079784592 0.20546468663 -0.29548681616 
0 0.41052549956 0 -0.1805049794 0.05781629622 -0.033949824544 0.12619151306 -0.030120305532 -0.12723660908 
0 0.39882697079 0 0 0.39925497113 0 0.16820795446 0.029549338883 0.12446726565 
0.0023122065005 0.39628274053 0.0023597342796 0.00056348824668 0.40152978625 0.00027402949384 0 0.39875819248 -0.0097057056303 
0.044804293718 0.32049728826 -0.0062287931832 0.017520411208 0.26585849524 0.23466470492 -0.076416026534 0.17725342488 -0.024615689046 
-0.20190154007 0.19481537035 0.026359778761 0.0002814165965 0.39586236908 -0.0042450652735 0 0.39872827304 0 
0 0.38755395842 -0.0050852537353 -8.0938774001e-06 0.39894161244 0 -0.00036883905222 0.40129851273 -0.0077537456699 
0.067490180065 0.26525617797 0.16187870525 -0.0028093883689 0.38986854671 0.0010682915147 0 0.38761842277 0 
0.0012503121485 0.38702661056 -0.005926866043 0 0.41016565709 9.1963837408e-06 -0.0033082998542 0.13377592098 -0.0033247496929 
0.0002436659938 0.41148920957 0.0063921664547 -0.0046666478446 0.28784143851 -0.0046798590522 0.0003763721185 0.37285264834 -0.0042723391668 
0 0.3987994427 6.9043932791e-06 0.0024336544151 0.40286253151 0.0042270621109 -0.002634341908 0.41110012695 0.0010203462189 
0.0010846818103 -0.93294771852 -0.0074158389894 -0.00034343886494 0.40466659514 0.0053116277937 0.00051441565056 0.39864167423 0.0017178022421 
0.0017521974428 -1.0007942276 0.004261372227 0.36977578319 -0.64772503422 -0.25858240166 0.020188320678 0.34687093157 -0.00040929342903 
0.086053560792 0.32893311383 -0.0017445639745 0.003430585782 0.26858144658 0.036345321829 0.029413252513 0.37548142821 -0.013017414426 
-0.23465860515 0.31091122182 0.049620763329 -0.024300398877 0.081944597612 -0.00071318226559 0.2471524416 -0.12052164281 0.0057565146692 
-0.30057167303 -0.0057001018753 -0.016076409613 -0.17588161393 -0.033113448321 -0.024566294682 0.0050909747433 -0.80797522158 -0.033712280558 
-0.099007385536 0.082080622725 -0.049446953515 0.064494537023 0.0322519743 0.018940433817 -0.012131223927 0.0087868791929 0.053660634561 
0.0025950413761 0.36678395429 -0.010660808162 0.046560462567 0.21263860104 0.0028050972424 -0.13627000399 -0.47521581628 0.09933884688 