# vtk DataFile Version 5.1
Generated by LIGGGHTS
ASCII
DATASET POLYDATA
POINTS 694 float
-0.138206 0.0562812 -0.144634 -0.141775 0.0696224 -0.143995 -0.0997485 0.0936147 -0.14321 
-0.117102 0.106109 -0.143372 -0.0736459 0.103195 -0.143055 -0.0496579 0.154756 -0.143202 
-0.144337 0.0592711 -0.135117 -0.117989 0.0570432 -0.140062 -0.0734907 0.0580491 -0.139078 
-0.00687354 0.0661825 -0.137287 -0.0231843 0.0992011 -0.135181 -0.134042 0.0651423 -0.133025 
-0.0446881 0.0675183 -0.129487 -0.0736434 0.0807663 -0.132338 -0.0542519 0.0778194 -0.134458 
-0.00191082 0.0874111 -0.134707 -0.0115233 0.131116 -0.132576 -0.127336 0.191234 -0.131567 
-0.115151 0.0602297 -0.126421 -0.0818939 0.0575342 -0.121072 -0.129207 0.0621179 -0.122121 
-0.137169 0.0808751 -0.12354 -0.0699826 0.149617 -0.124273 -0.14112 0.0566571 -0.117492 
-0.120961 0.062581 -0.113101 -0.0369506 0.0764168 -0.119769 -0.120551 0.0801427 -0.114965 
-0.0914461 0.0875881 -0.117577 -0.0130866 0.0890608 -0.114031 -0.0235103 0.152118 -0.113358 
-0.0212254 0.0582544 -0.106734 -0.0317443 0.069027 -0.109604 -0.11355 0.0828008 -0.108254 
-0.0467559 0.190243 -0.00115547 -0.110114 0.10856 -0.113039 -0.0815077 0.103795 -0.111266 
-0.109893 0.122074 -0.111502 -0.0834001 0.178204 -0.109741 -0.062664 0.0699638 -0.0983127 
-0.0470301 0.0987906 -0.0977179 -0.00706107 0.0717961 -0.0940805 -0.064899 0.113161 -0.0952017 
-0.0547264 0.0657101 -0.0894603 -0.0551153 0.0898245 -0.0859258 -0.0689974 0.179679 -0.0869737 
-0.107223 0.0637709 -0.00328507 -0.0618734 0.0682725 -0.0800947 -0.132736 0.0757286 -0.0753149 
-0.0426795 0.0868543 -0.0797844 -0.0131116 0.0642388 -0.0750614 -0.0773641 0.0749066 -0.0736347 
-0.0275298 0.069715 -0.0706044 -0.0742437 0.0891417 -0.0738451 -0.0419738 0.108872 -0.0678942 
-0.0848825 0.181206 -0.0727564 -0.104697 0.0587171 -0.0646617 -0.0380269 0.0571416 -0.0667401 
-0.115359 0.0655316 -0.0651961 -0.115529 0.140219 -0.0607073 -0.0743969 0.0553824 -0.0473501 
-0.07015 0.0672282 -0.0510631 -0.00809305 0.0675376 -0.0455291 -0.116201 0.0769939 -0.046713 
-0.143676 0.0912366 -0.0462027 -0.0427508 0.0556882 -0.0428429 -0.0514808 0.0820967 -0.0449218 
-0.0290797 0.0995811 -0.044258 -0.0225414 0.161726 -0.0400135 -0.113392 0.0563454 -0.0318132 
-0.0983014 0.0772386 -0.033818 -0.0103065 0.0852442 -0.0357546 -0.0917453 0.0923223 -0.0324667 
-0.0362236 0.0890754 -0.0341657 -0.0236518 0.112228 -0.0333663 -0.0134834 0.12456 -0.0349937 
-0.104349 0.189774 -0.0326997 -0.0288195 0.0829972 -0.0268516 -0.139085 0.136675 -0.0311425 
-0.134735 0.0636991 -0.0155122 -0.0616926 0.0673575 -0.0208696 -0.0438348 0.0624382 -0.0168093 
-0.0355622 0.0757897 -0.0220989 -0.00550778 0.0776804 -0.0166604 -0.142353 0.104084 -0.0203118 
-0.0659962 0.105637 -0.0191586 -0.123123 0.116882 -0.0155679 -0.0488331 0.183303 -0.019761 
-0.111223 0.057851 -0.0118363 -0.0714133 0.0677015 -0.0144307 -0.0177733 0.0988586 -0.0110662 
-0.134795 0.110883 -0.0114435 -0.0366742 0.143811 -0.0101098 -0.137435 0.0562613 -0.00286534 
-0.0818694 0.0583098 -0.0018059 -0.0455236 0.058783 -0.00303124 -0.120412 0.0617771 -0.00768429 
-0.119408 0.0662253 0.00602705 -0.110483 0.0708056 0.00394594 -0.101714 0.0595153 0.00975393 
-0.0435319 0.0557732 0.0134673 -0.143777 0.0630886 0.0138513 -0.133335 0.0635584 0.0100203 
-0.0720354 0.101875 0.0128445 -0.0278761 0.0693669 0.0181264 -0.130675 0.0723327 0.0154742 
-0.110825 0.0772359 0.0185674 -0.0944434 0.11113 0.0197349 -0.126239 0.0553102 0.0243453 
-0.1193 0.071469 0.0243576 -0.0388659 0.0742243 0.0242505 -0.0244396 0.0712114 0.0281681 
-0.120113 0.108647 0.0265276 -0.0871578 0.197071 0.0242527 -0.0455492 0.0580112 0.0357213 
-0.0202516 0.0588068 0.0311694 -0.00428058 0.0550611 0.0338359 -0.103343 0.065279 0.0381017 
-0.0860349 0.0715361 0.0306043 -0.0487187 0.0749281 0.0331964 -0.128965 0.0865686 0.0354026 
-0.0427655 0.171111 0.0364121 -0.10288 0.198802 0.0339641 -0.0644832 0.0638857 0.0437212 
-0.13246 0.131479 0.0435649 -0.0760657 0.0629217 0.0478274 -0.136687 0.0703812 0.0464237 
-0.00647302 0.0977063 0.0495262 -0.0899732 0.183339 0.0477829 -0.0474393 0.163034 0.144855 
-0.0872981 0.101619 0.144041 -0.00693544 0.0689703 0.144908 -0.100969 0.0570849 0.142974 
-0.13052 0.0615149 0.0540968 -0.0866405 0.0569725 0.0585536 -0.0349199 0.0618811 0.0536338 
-0.139414 0.0694937 0.0577054 -0.0157357 0.0726964 0.0600344 -0.110346 0.168024 0.0595609 
-0.131714 0.0593272 0.0653058 -0.0724576 0.120114 0.0663244 -0.00351484 0.0585707 0.070932 
-0.118504 0.0891192 0.0757457 -0.110755 0.0973698 0.0734994 -0.0302149 0.117977 0.0715904 
-0.133422 0.0614852 0.0770353 -0.0484315 0.0656987 0.0825253 -0.0386816 0.0773182 0.0795745 
-0.00340847 0.0881795 0.0798094 -0.0812568 0.160193 0.0770212 -0.0124721 0.0618452 0.0859611 
-0.13159 0.106629 0.0873868 -0.0418592 0.186554 0.0867469 -0.111752 0.193563 0.0893203 
-0.0169162 0.193239 0.0973861 -0.0298299 0.114808 0.100298 -0.120817 0.18368 0.0988697 
-0.0305833 0.193629 0.0995464 -0.031853 0.0681584 0.110255 -0.0578477 0.128355 0.104983 
-0.0277921 0.059988 0.115635 -0.0626559 0.122869 0.115474 -0.109689 0.184629 0.113557 
-0.0413629 0.194503 0.115545 -0.029751 0.199187 0.11304 -0.0487698 0.146273 0.122732 
-0.0503081 0.177811 0.122962 -0.0740627 0.184864 0.126221 -0.131935 0.189164 0.121557 
-0.0805448 0.121096 0.132637 -0.0785466 0.153881 0.133211 -0.119511 0.167322 0.130442 
-0.0872064 0.165677 0.129787 -0.129385 0.0692092 0.140826 -0.0925123 0.0878008 0.141952 
-0.130278 0.185382 0.140134 -0.0401518 0.206243 -0.10555 -0.0352332 0.206243 -0.10555 
-0.0401518 0.214433 -0.10555 -0.0352332 0.214433 -0.10555 -0.113172 0.250921 -0.109434 
-0.102267 0.25093 -0.109434 -0.113186 0.283798 -0.109514 -0.102281 0.283808 -0.109514 
-0.0401518 0.206243 -0.100631 -0.0352332 0.206243 -0.100631 -0.0401518 0.214433 -0.100631 
-0.0352332 0.214433 -0.100631 -0.113172 0.250976 -0.0985291 -0.102267 0.250985 -0.0985292 
-0.113186 0.283853 -0.0986094 -0.102281 0.283863 -0.0986094 -0.0548073 0.219006 -0.0878125 
-0.0472946 0.219006 -0.0878125 -0.0548073 0.237895 -0.0878157 -0.0472946 0.237895 -0.0878157 
-0.0548073 0.219009 -0.0802995 -0.0472946 0.219009 -0.0802995 -0.0548073 0.237896 -0.0803032 
-0.0472946 0.237896 -0.0803032 -0.0616843 0.20855 -0.0708314 -0.0616867 0.208542 -0.0751513 
-0.0660067 0.208541 -0.075149 -0.0660043 0.208549 -0.070829 -0.0616817 0.20283 -0.0708204 
-0.0616841 0.202822 -0.0751404 -0.0660017 0.202828 -0.070818 -0.066004 0.20282 -0.075138 
-0.118761 0.216516 -0.0675677 -0.118811 0.216513 -0.0744818 -0.111846 0.216517 -0.0676182 
-0.111897 0.216514 -0.0745323 -0.118762 0.232935 -0.0675724 -0.118813 0.232932 -0.0744864 
-0.111848 0.232936 -0.0676229 -0.111899 0.232933 -0.074537 -0.022696 0.217635 -0.0672647 
-0.022722 0.217659 -0.0601511 -0.0156128 0.217631 -0.0601331 -0.0155823 0.217603 -0.0672387 
-0.0226498 0.234877 -0.0672989 -0.0226759 0.2349 -0.0601852 -0.0155362 0.234845 -0.0672728 
-0.0155623 0.234869 -0.0601592 -0.0155781 0.214132 -0.0565701 -0.00906764 0.214136 -0.056561 
-0.0570183 0.222929 -0.0535701 -0.048907 0.222929 -0.0535701 -0.0155841 0.228908 -0.0565861 
-0.00906914 0.228909 -0.0565689 -0.0570183 0.244286 -0.0535701 -0.048907 0.244286 -0.0535701 
-0.0852432 0.207749 -0.0467854 -0.0852432 0.207747 -0.0521032 -0.0799255 0.207749 -0.0467854 
-0.0799255 0.207747 -0.0521032 -0.0852432 0.217583 -0.0521048 -0.0852432 0.217583 -0.0467872 
-0.0799255 0.217583 -0.0467872 -0.0799255 0.217583 -0.0521048 -0.0155998 0.214141 -0.0500631 
-0.00908476 0.214142 -0.050046 -0.0570183 0.222929 -0.0454587 -0.048907 0.222929 -0.0454587 
-0.0156013 0.228914 -0.0500711 -0.00908626 0.228915 -0.050054 -0.0570183 0.244286 -0.0454587 
-0.048907 0.244286 -0.0454587 -0.129942 0.205191 -0.0331547 -0.125223 0.205191 -0.0331547 
-0.129942 0.212558 -0.0331546 -0.125223 0.212558 -0.0331546 -0.129942 0.205191 -0.0284356 
-0.125223 0.205191 -0.0284356 -0.129942 0.212558 -0.0284356 -0.125223 0.212558 -0.0284356 
-0.0206818 0.216339 -0.0156924 -0.0191247 0.216591 -0.00955847 -0.0139704 0.216313 -0.0149515 
-0.0139972 0.21632 -0.00805337 -0.0189978 0.233108 -0.010065 -0.0208527 0.232736 -0.0151542 
-0.0140561 0.232736 -0.00804401 -0.0139839 0.232732 -0.014958 -0.0237033 0.215654 -0.00523617 
-0.0882042 0.205307 -0.0869475 -0.0290921 0.21592 -0.00665 -0.0289218 0.231689 -0.00671228 
-0.0882042 0.205307 -0.0908684 -0.0240143 0.231298 -0.00467042 -0.0842833 0.205307 -0.0908684 
-0.0842833 0.205307 -0.0869475 -0.0842833 0.201232 -0.0908684 -0.0882042 0.201232 -0.0869475 
-0.0882042 0.201232 -0.0908684 -0.0842833 0.201232 -0.0869475 -0.0222251 0.21589 0.000800185 
-0.0689366 0.210189 0.0349143 -0.0632198 0.210189 0.0349143 -0.0689366 0.221671 0.0349143 
-0.0632198 0.221671 0.0349143 -0.0205024 0.276041 0.0306202 -0.0093989 0.275221 0.030767 
-0.0197368 0.287145 0.0311736 -0.00863326 0.286325 0.0313204 -0.0689366 0.210189 0.0406311 
-0.0632198 0.210189 0.0406311 -0.0689366 0.221671 0.0406311 -0.0632198 0.221671 0.0406311 
-0.0206716 0.275365 0.0417239 -0.00956813 0.274546 0.0418708 -0.0199061 0.286469 0.0422773 
-0.0088025 0.285649 0.0424241 -0.101041 0.206166 0.0513645 -0.101041 0.206166 0.0472441 
-0.0969205 0.206166 0.0513649 -0.0969202 0.206166 0.0472445 -0.0378809 0.209823 0.0567912 
-0.0424005 0.209823 0.0567912 -0.0424005 0.203424 0.0567912 -0.0378809 0.203424 0.0567912 
-0.109925 0.213326 0.0589732 -0.10361 0.213326 0.0589732 -0.109925 0.227276 0.0589732 
-0.10361 0.227276 0.0589732 -0.05541 0.219968 0.0573817 -0.0476978 0.219968 0.0573823 
-0.05541 0.23885 0.0573968 -0.0476978 0.23885 0.0573974 -0.0995291 0.283553 0.0541892 
-0.085201 0.283555 0.0541893 -0.0995324 0.336 0.0541971 -0.0852044 0.336003 0.0541972 
-0.0378809 0.209823 0.0613107 -0.0424005 0.209823 0.0613107 -0.0378809 0.203424 0.0613107 
-0.0424005 0.203424 0.0613107 -0.109925 0.213326 0.0652887 -0.10361 0.213326 0.0652887 
-0.109925 0.227276 0.0652887 -0.10361 0.227276 0.0652887 -0.0554284 0.220632 0.0640516 
[...]
POINT_DATA 694
FIELD FieldData 8
id 1 694 int
3781 3801 3994 3970 3744 3884 3894 3745 2648 
3730 3937 2739 2901 3917 3749 3952 3726 3907 
2755 3931 3785 3823 3802 3024 3586 3296 3023 
3981 3773 3959 3844 3852 3908 3845 3359 3180 
3987 3403 3685 3903 3943 3830 3960 3808 3976 
3971 3757 3716 3242 3966 3738 3877 3932 3873 
3949 3360 3731 3727 3243 3918 3814 2962 3135 
3896 3961 3758 3809 3519 3853 2961 2749 3939 
2824 3244 3774 3878 3995 3951 3297 3786 3919 
3787 2482 3920 3686 2823 3895 3885 3938 3879 
3815 3953 3925 3746 3975 3182 2902 3831 3720 
3962 3688 3982 3996 3782 3825 3950 3988 3836 
3803 3940 3587 3909 3794 3747 3847 3810 3631 
3775 3906 3955 3989 3783 3788 3728 3911 3854 
3846 2826 3690 3956 3848 3689 3760 3768 3406 
3864 3461 3859 3863 3761 3871 3941 3910 3765 
3721 3136 3954 3325 3904 2550 3776 3898 3865 
3817 2509 3886 2649 3754 3997 3977 3963 3933 
3866 3855 3874 3984 3880 3887 3632 3837 3921 
3897 3729 3875 3722 4226 4230 4228 4232 4018 
4022 4020 4024 4227 4231 4229 4225 4019 4023 
4021 4017 4042 4046 4044 4048 4043 4047 4045 
4041 4281 4288 4284 4285 4287 4286 4283 4282 
4085 4084 4089 4088 4087 4086 4091 4090 4058 
4059 4063 4062 4060 4061 4064 4057 4138 4142 
4026 4030 4140 4144 4028 4032 4195 4194 4199 
4198 4196 4197 4193 4200 4139 4143 4027 4031 
4141 4137 4029 4025 4258 4262 4260 4264 4259 
4263 4261 4257 4092 4093 4096 4075 4095 4094 
4073 4074 4080 4333 4076 4078 4332 4082 4336 
4329 4334 4331 4330 4335 4081 4162 4166 4164 
4168 4010 4014 4012 4016 4163 4167 4165 4161 
4011 4015 4013 4009 4317 4316 4313 4320 4272 
4268 4266 4270 4146 4150 4148 4152 4034 4038 
4036 4040 4002 4006 4004 4008 4265 4269 4271 
4267 4147 4151 4149 4145 4035 4039 4037 4033 
4116 4115 4120 4119 4154 4158 4066 4067 4071 
4070 4156 4160 4117 4118 4122 4121 4068 4069 
4065 4072 4003 4007 4005 4001 4234 4238 4214 
4210 4236 4240 4155 4159 4123 4127 4216 4212 
4157 4153 4125 4114 4235 4239 4215 4211 4237 
4233 4124 4128 4209 4213 4126 4113 4296 4292 
4294 4290 4179 4178 4183 4182 4181 4180 4184 
4177 4289 4293 4295 4291 4050 4051 4052 4053 
4077 4079 4083 4315 4314 4319 4318 3899 3849 
3161 3927 3876 3905 3942 3818 3934 3789 3811 
3440 3900 3957 3972 3964 3838 3762 3860 3784 
3741 3717 3978 3965 2927 3945 3922 3985 3025 
3944 3405 3755 3867 2989 3796 3888 2591 3856 
2481 3711 2867 3666 3839 3819 3778 3868 3869 
3441 3826 3737 3665 3208 3712 3805 2748 3766 
3812 3770 3162 3806 3840 3881 3691 3386 3832 
3889 3850 3797 3891 3262 3841 3827 2483 3777 
3793 3324 3723 3851 3614 2751 3973 3929 3928 
3842 3771 2750 3946 3890 3991 3990 3714 3914 
3763 3999 3915 3385 3442 3882 3912 3779 2690 
3791 3870 3613 3913 3858 3764 3923 3732 3263 
3901 3742 3718 3820 2790 3828 3668 3084 2963 
3692 2484 3979 3974 3667 3986 3916 3790 3835 
3998 3993 3924 3799 3518 2928 3947 3750 3893 
3948 3739 3715 3719 3892 3821 3902 3693 3751 
4000 3834 3298 3862 3861 3926 3833 2752 3772 
3857 3443 3958 3843 3968 3798 3829 3326 3733 
3983 3780 3822 3935 2868 3872 3800 3980 3992 
3930 3725 3792 2753 3936 3967 3743 3883 3444 
3969 4300 4298 4304 4302 4301 4299 4297 4303 
4202 4206 4204 4208 4203 4207 4205 4201 4324 
4328 4309 4308 4307 4306 4305 4312 4311 4310 
4325 4321 4186 4190 4188 4192 4187 4191 4244 
4243 4248 4247 4189 4185 4099 4103 4246 4245 
4250 4249 4101 4105 4100 4104 4102 4106 4252 
4251 4256 4255 4131 4130 4135 4134 4254 4253 
4241 4242 4133 4132 4136 4129 4218 4219 4223 
4222 4170 4174 4220 4221 4217 4224 4172 4176 
4171 4175 4173 4169 4276 4274 4280 4278 4107 
4111 4055 4054 4109 4098 4049 4056 4277 4275 
4273 4279 4108 4112 4110 4097 4322 4326 4323 
4327 
type 1 694 int
2 2 2 2 2 2 2 2 2 
2 2 2 2 2 2 2 2 2 
2 2 2 2 2 2 2 2 2 
2 2 2 2 2 2 2 2 2 
2 2 2 2 2 2 2 2 2 
2 2 2 2 2 2 2 2 2 
2 2 2 2 2 2 2 2 2 
2 2 2 2 2 2 2 2 2 
2 2 2 2 2 2 2 2 2 
2 2 2 2 2 2 2 2 2 
2 2 2 2 2 2 2 2 2 
2 2 2 2 2 2 2 2 2 
2 2 2 2 2 2 2 2 2 
2 2 2 2 2 2 2 2 2 
2 2 2 2 2 2 2 2 2 
2 2 2 2 2 2 2 2 2 
2 2 2 2 2 2 2 2 2 
2 2 2 2 2 2 2 2 2 
2 2 2 2 2 2 2 2 2 
2 2 2 2 2 2 2 2 2 
2 2 2 2 2 2 2 2 2 
2 2 2 2 2 2 2 2 2 
2 2 2 2 2 2 2 2 2 
2 2 2 2 2 2 2 2 2 
2 2 2 2 2 2 2 2 2 
2 2 2 2 2 2 2 2 2 
2 2 2 2 2 2 2 2 2 
2 2 2 2 2 2 2 2 2 
2 2 2 2 2 2 2 2 2 
2 2 2 2 2 2 2 2 2 
2 2 2 2 2 2 2 2 2 
2 2 2 2 2 2 2 2 2 
2 2 2 2 2 2 2 2 2 
2 2 2 2 2 2 2 2 2 
2 2 2 2 2 2 2 2 2 
2 2 2 2 2 2 2 2 2 
2 2 2 2 2 2 2 2 2 
2 2 2 2 2 2 2 2 2 
2 2 2 2 2 2 2 2 2 
2 2 2 2 2 2 2 2 2 
2 2 2 2 2 2 2 2 2 
2 2 2 2 2 2 2 2 2 
2 2 2 2 2 2 2 2 2 
2 2 2 2 2 2 2 2 2 
2 2 2 2 2 2 2 2 2 
2 2 2 2 2 2 2 2 2 
2 2 2 2 2 2 2 2 2 
2 2 2 2 2 2 2 2 2 
2 2 2 2 2 2 2 2 2 
2 2 2 2 2 2 2 2 2 
2 2 2 2 2 2 2 2 2 
2 2 2 2 2 2 2 2 2 
2 2 2 2 2 2 2 2 2 
2 2 2 2 2 2 2 2 2 
2 2 2 2 2 2 2 2 2 
2 2 2 2 2 2 2 2 2 
2 2 2 2 2 2 2 2 2 
2 2 2 2 2 2 2 2 2 
2 2 2 2 2 2 2 2 2 
2 2 2 2 2 2 2 2 2 
2 2 2 2 2 2 2 2 2 
2 2 2 2 2 2 2 2 2 
2 2 2 2 2 2 2 2 2 
2 2 2 2 2 2 2 2 2 
2 2 2 2 2 2 2 2 2 
2 2 2 2 2 2 2 2 2 
2 2 2 2 2 2 2 2 2 
2 2 2 2 2 2 2 2 2 
2 2 2 2 2 2 2 2 2 
2 2 2 2 2 2 2 2 2 
2 2 2 2 2 2 2 2 2 
2 2 2 2 2 2 2 2 2 
2 2 2 2 2 2 2 2 2 
2 2 2 2 2 2 2 2 2 
2 2 2 2 2 2 2 2 2 
2 2 2 2 2 2 2 2 2 
2 2 2 2 2 2 2 2 2 
2 
i 3 694 int
0 0 0 0 0 0 0 0 0 
0 0 0 0 0 0 0 0 0 
0 0 0 0 0 0 0 0 0 
0 0 0 0 0 0 0 0 0 
0 0 0 0 0 0 0 0 0 
0 0 0 0 0 0 0 0 0 
0 0 0 0 0 0 0 0 0 
0 0 0 0 0 0 0 0 0 
0 0 0 0 0 0 0 0 0 
0 0 0 0 0 0 0 0 0 
0 0 0 0 0 0 0 0 0 
0 0 0 0 0 0 0 0 0 
0 0 0 0 0 0 0 0 0 
0 0 0 0 0 0 0 0 0 
0 0 0 0 0 0 0 0 0 
0 0 0 0 0 0 0 0 0 
0 0 0 0 0 0 0 0 0 
0 0 0 0 0 0 0 0 0 
0 0 0 0 0 0 0 0 0 
0 0 0 0 0 0 0 0 0 
0 0 0 0 0 0 0 0 0 
0 0 0 0 0 0 0 0 0 
0 0 0 0 0 0 0 0 0 
0 0 0 0 0 0 0 0 0 
0 0 0 0 0 0 0 0 0 
0 0 0 0 0 0 0 0 0 
0 0 0 0 0 0 0 0 0 
0 0 0 0 0 0 0 0 0 
0 0 0 0 0 0 0 0 0 
0 0 0 0 0 0 0 0 0 
0 0 0 0 0 0 0 0 0 
0 0 0 0 0 0 0 0 0 
0 0 0 0 0 0 0 0 0 
0 0 0 0 0 0 0 0 0 
0 0 0 0 0 0 0 0 0 
0 0 0 0 0 0 0 0 0 
0 0 0 0 0 0 0 0 0 
0 0 0 0 0 0 0 0 0 
0 0 0 0 0 0 0 0 0 
0 0 0 0 0 0 0 0 0 
0 0 0 0 0 0 0 0 0 
0 0 0 0 0 0 0 0 0 
0 0 0 0 0 0 0 0 0 
0 0 0 0 0 0 0 0 0 
0 0 0 0 0 0 0 0 0 
0 0 0 0 0 0 0 0 0 
0 0 0 0 0 0 0 0 0 
0 0 0 0 0 0 0 0 0 
0 0 0 0 0 0 0 0 0 
0 0 0 0 0 0 0 0 0 
0 0 0 0 0 0 0 0 0 
0 0 0 0 0 0 0 0 0 
0 0 0 0 0 0 0 0 0 
0 0 0 0 0 0 0 0 0 
0 0 0 0 0 0 0 0 0 
0 0 0 0 0 0 0 0 0 
0 0 0 0 0 0 0 0 0 
0 0 0 0 0 0 0 0 0 
0 0 0 0 0 0 0 0 0 
0 0 0 0 0 0 0 0 0 
0 0 0 0 0 0 0 0 0 
0 0 0 0 0 0 0 0 0 
0 0 0 0 0 0 0 0 0 
0 0 0 0 0 0 0 0 0 
0 0 0 0 0 0 0 0 0 
0 0 0 0 0 0 0 0 0 
0 0 0 0 0 0 0 0 0 
0 0 0 0 0 0 0 0 0 
0 0 0 0 0 0 0 0 0 
0 0 0 0 0 0 0 0 0 
0 0 0 0 0 0 0 0 0 
0 0 0 0 0 0 0 0 0 
0 0 0 0 0 0 0 0 0 
0 0 0 0 0 0 0 0 0 
0 0 0 0 0 0 0 0 0 
0 0 0 0 0 0 0 0 0 
0 0 0 0 0 0 0 0 0 
0 0 0 0 0 0 0 0 0 
0 0 0 0 0 0 0 0 0 
0 0 0 0 0 0 0 0 0 
0 0 0 0 0 0 0 0 0 
0 0 0 0 0 0 0 0 0 
0 0 0 0 0 0 0 0 0 
0 0 0 0 0 0 0 0 0 
0 0 0 0 0 0 0 0 0 
0 0 0 0 0 0 0 0 0 
0 0 0 0 0 0 0 0 0 
0 0 0 0 0 0 0 0 0 
0 0 0 0 0 0 0 0 0 
0 0 0 0 0 0 0 0 0 
0 0 0 0 0 0 0 0 0 
0 0 0 0 0 0 0 0 0 
0 0 0 0 0 0 0 0 0 
0 0 0 0 0 0 0 0 0 
0 0 0 0 0 0 0 0 0 
0 0 0 0 0 0 0 0 0 
0 0 0 0 0 0 0 0 0 
0 0 0 0 0 0 0 0 0 
0 0 0 0 0 0 0 0 0 
0 0 0 0 0 0 0 0 0 
0 0 0 0 0 0 0 0 0 
0 0 0 0 0 0 0 0 0 
0 0 0 0 0 0 0 0 0 
0 0 0 0 0 0 0 0 0 
0 0 0 0 0 0 0 0 0 
0 0 0 0 0 0 0 0 0 
0 0 0 0 0 0 0 0 0 
0 0 0 0 0 0 0 0 0 
0 0 0 0 0 0 0 0 0 
0 0 0 0 0 0 0 0 0 
0 0 0 0 0 0 0 0 0 
0 0 0 0 0 0 0 0 0 
0 0 0 0 0 0 0 0 0 
0 0 0 0 0 0 0 0 0 
0 0 0 0 0 0 0 0 0 
0 0 0 0 0 0 0 0 0 
0 0 0 0 0 0 0 0 0 
0 0 0 0 0 0 0 0 0 
0 0 0 0 0 0 0 0 0 
0 0 0 0 0 0 0 0 0 
0 0 0 0 0 0 0 0 0 
0 0 0 0 0 0 0 0 0 
0 0 0 0 0 0 0 0 0 
0 0 0 0 0 0 0 0 0 
0 0 0 0 0 0 0 0 0 
0 0 0 0 0 0 0 0 0 
0 0 0 0 0 0 0 0 0 
0 0 0 0 0 0 0 0 0 
0 0 0 0 0 0 0 0 0 
0 0 0 0 0 0 0 0 0 
0 0 0 0 0 0 0 0 0 
0 0 0 0 0 0 0 0 0 
0 0 0 0 0 0 0 0 0 
0 0 0 0 0 0 0 0 0 
0 0 0 0 0 0 0 0 0 
0 0 0 0 0 0 0 0 0 
0 0 0 0 0 0 0 0 0 
0 0 0 0 0 0 0 0 0 
0 0 0 0 0 0 0 0 0 
0 0 0 0 0 0 0 0 0 
0 0 0 0 0 0 0 0 0 
0 0 0 0 0 0 0 0 0 
0 0 0 0 0 0 0 0 0 
0 0 0 0 0 0 0 0 0 
0 0 0 0 0 0 0 0 0 
0 0 0 0 0 0 0 0 0 
0 0 0 0 0 0 0 0 0 
0 0 0 0 0 0 0 0 0 
0 0 0 0 0 0 0 0 0 
0 0 0 0 0 0 0 0 0 
0 0 0 0 0 0 0 0 0 
0 0 0 0 0 0 0 0 0 
0 0 0 0 0 0 0 0 0 
0 0 0 0 0 0 0 0 0 
0 0 0 0 0 0 0 0 0 
0 0 0 0 0 0 0 0 0 
0 0 0 0 0 0 0 0 0 
0 0 0 0 0 0 0 0 0 
0 0 0 0 0 0 0 0 0 
0 0 0 0 0 0 0 0 0 
0 0 0 0 0 0 0 0 0 
0 0 0 0 0 0 0 0 0 
0 0 0 0 0 0 0 0 0 
0 0 0 0 0 0 0 0 0 
0 0 0 0 0 0 0 0 0 
0 0 0 0 0 0 0 0 0 
0 0 0 0 0 0 0 0 0 
0 0 0 0 0 0 0 0 0 
0 0 0 0 0 0 0 0 0 
0 0 0 0 0 0 0 0 0 
0 0 0 0 0 0 0 0 0 
0 0 0 0 0 0 0 0 0 
0 0 0 0 0 0 0 0 0 
0 0 0 0 0 0 0 0 0 
0 0 0 0 0 0 0 0 0 
0 0 0 0 0 0 0 0 0 
0 0 0 0 0 0 0 0 0 
0 0 0 0 0 0 0 0 0 
0 0 0 0 0 0 0 0 0 
0 0 0 0 0 0 0 0 0 
0 0 0 0 0 0 0 0 0 
0 0 0 0 0 0 0 0 0 
0 0 0 0 0 0 0 0 0 
0 0 0 0 0 0 0 0 0 
0 0 0 0 0 0 0 0 0 
0 0 0 0 0 0 0 0 0 
0 0 0 0 0 0 0 0 0 
0 0 0 0 0 0 0 0 0 
0 0 0 0 0 0 0 0 0 
0 0 0 0 0 0 0 0 0 
0 0 0 0 0 0 0 0 0 
0 0 0 0 0 0 0 0 0 
0 0 0 0 0 0 0 0 0 
0 0 0 0 0 0 0 0 0 
0 0 0 0 0 0 0 0 0 
0 0 0 0 0 0 0 0 0 
0 0 0 0 0 0 0 0 0 
0 0 0 0 0 0 0 0 0 
0 0 0 0 0 0 0 0 0 
0 0 0 0 0 0 0 0 0 
0 0 0 0 0 0 0 0 0 
0 0 0 0 0 0 0 0 0 
0 0 0 0 0 0 0 0 0 
0 0 0 0 0 0 0 0 0 
0 0 0 0 0 0 0 0 0 
0 0 0 0 0 0 0 0 0 
0 0 0 0 0 0 0 0 0 
0 0 0 0 0 0 0 0 0 
0 0 0 0 0 0 0 0 0 
0 0 0 0 0 0 0 0 0 
0 0 0 0 0 0 0 0 0 
0 0 0 0 0 0 0 0 0 
0 0 0 0 0 0 0 0 0 
0 0 0 0 0 0 0 0 0 
0 0 0 0 0 0 0 0 0 
0 0 0 0 0 0 0 0 0 
0 0 0 0 0 0 0 0 0 
0 0 0 0 0 0 0 0 0 
0 0 0 0 0 0 0 0 0 
0 0 0 0 0 0 0 0 0 
0 0 0 0 0 0 0 0 0 
0 0 0 0 0 0 0 0 0 
0 0 0 0 0 0 0 0 0 
0 0 0 0 0 0 0 0 0 
0 0 0 0 0 0 0 0 0 
0 0 0 0 0 0 0 0 0 
0 0 0 0 0 0 0 0 0 
0 0 0 0 0 0 0 0 0 
0 0 0 0 0 0 0 0 0 
0 0 0 0 0 0 0 0 0 
0 0 0 0 0 0 0 0 0 
0 0 0 
v 3 694 double
0.0080156891962 -0.0015029605931 0.004447886628 0.010048934566 -0.00070430313784 0.0034683114765 -0.015970077835 0.15166809512 0.0078683031147 
-0.13317801248 0.16221021249 0.0070055395523 0.0084999301845 0.1323890659 0.0081926522313 0.0041098429884 0.30328549985 0.0085481915591 
0.0046274359853 0.008066801115 -0.0032981339191 -0.0056303209371 0.0085283445581 0.016039859049 -0.027173646627 0.011902077028 0.021408443641 
-0.067016782723 0.05887268572 -0.088471391057 0.00042695319134 0.13846042764 0.029105660503 0.0086390268809 0.038845535794 -0.0015567670795 
0.019798951085 0.040401127349 0.0076420378047 -0.078830096885 0.05744859893 0.00019912973901 -0.19048707261 0.037453699347 -0.044591951551 
-0.073359751146 0.048740936439 0.033533506534 0.088754276994 0.22662720955 0.01755179333 0 0.410001241 0 
-0.015825932323 -0.0093599622889 0.054880867859 -0.055110835015 0.016838623604 0.044337729087 -0.021953360345 0.025884201396 0.04599242959 
-0.027682094838 0.035560805087 0.07204171858 -0.040956546694 0.26237529859 -0.077021290032 0.012445841211 0.010247161759 0.022377678425 
-0.052806535397 0.024323413529 0.073682984456 0.012718550083 0.067616469755 0.01425317236 -0.032235806057 0.015450186834 0.090000174597 
0.096087284017 0.12261288527 -0.004294039915 -0.046543241901 0.073906791384 0.057776194531 -0.00066328633309 0.27334262606 0.093316999735 
-0.023837693753 0.013424326694 0.030482934101 -0.024108631974 0.052866387327 -0.0092589620461 -0.21558529215 -0.019513045433 -0.17941226195 
-0.018713004647 0.38875185117 7.8913229596e-15 -0.097613623005 0.14261836488 -0.069878233524 -0.005644904192 0.11634111591 0.004857108426 
-0.031250205073 0.21919385107 0.082559184695 -0.0096575554909 0.27005267014 0.0080604148417 0.017418324533 0.057616216922 -0.030352324845 
0.035121297983 0.12847363527 0.096812815135 0.010421709988 0.032597662155 0.089304931032 -0.02568388976 0.17898130461 0.043235618101 
0.049970442685 -0.065324642116 0.045880628903 -0.013011560337 0.21057775716 -0.067361238852 -0.00010155981897 0.4026845298 0.00010091191765 
-0.079995245439 -0.017084149868 -0.024509996072 0.17906924697 0.04465336239 0.12954131523 0.084560273476 0.0049494460269 0.023097140815 
8.7304082862e-05 0.05658216547 0.0490846904 -0.19555073313 0.025642988905 -0.073980851181 -0.29508440245 -0.071096543414 -0.22995170811 
-0.051741169069 0.04058371722 -0.053836692909 -0.0032792434209 0.15987574977 -0.11366743156 -0.041178332009 0.14957725344 0.14796284926 
0 0.39875905054 0 -0.1093329276 0.013073293453 -0.054392005946 -0.10514529648 0.01736526256 0.032910920883 
-0.023683525094 0.038479039595 0.077669425022 0.0073616794846 0.22860097262 0.0056379145434 0.015727314557 0.021455075493 -0.0024677751594 
0.12805066387 0.097112908791 0.070525714734 -0.0039167831326 0.051254836739 -0.001557137884 0.011388376557 0.041364487349 -0.11565082641 
-0.10659233928 0.13529730026 -0.13355815864 0.095677381331 0.0044200649861 -0.086041273012 0.21273066105 0.083784470045 0.0040210919325 
0.088817694295 0.1124998154 -0.053149249242 -0.081077584478 0.27179021998 -0.19453844851 0.021593665187 0.0095357454859 0.083271952659 
0.0720265258 0.092481050782 0.10567728676 -0.035862658324 0.090291244517 0.064308977049 -0.016476201133 0.099454444818 -0.084306564822 
0.13721431181 0.10181133851 -0.021435361436 -0.011140416409 0.097767829241 -0.12921837017 0.1287683514 0.19121853907 0.11076579337 
0 0.39904491296 0 0.1362875538 0.039257522085 -0.0091534098264 0.086954209449 0.2526704874 -0.16366621469 
0.029577089408 0.051621073356 0.036709279218 0.068650783752 0.018026213225 0.060475464125 0.13889610943 -0.022972110717 0.059703086428 
0.10344903995 0.054815171856 -0.0038259629395 -0.019593090008 0.057115403233 0.099738465183 0.028538407798 0.025056636625 -0.064268107381 
-0.082935369571 0.12454513688 0.22031739751 0.048239276178 0.099225294711 0.24497616456 0 0.38773520475 0 
-0.040935584861 0.0080659946873 -0.037605969439 0.031590655792 0.043572963739 -0.02529784089 -0.033229108723 0.13146619811 -0.072439225811 
0.0094198569489 0.15103026516 -0.022541178981 -0.15104217532 0.21350433729 -0.08847513098 -0.0027343479842 0.020591615742 0.016982238916 
-0.02456028625 0.011359228832 -0.0113720337 0.027032685635 0.021794619309 -0.024559164227 -0.05241557277 -7.6474465414e-05 -0.038101718797 
-0.010215913331 0.035447076697 0.029717211007 0.014928890544 0.04441030584 -0.041816267398 -0.047772226234 0.0132061549 0.03151757883 
0.080529813377 0.0057628936695 0.0071294393731 0.0050133738183 0.03415893043 0.0051985059679 -0.0096028627141 0.01633234848 0.054694933923 
-0.0061600299512 0.11429591419 0.13432692073 0.049403257311 0.043097090476 -0.013412633032 -0.0019492195281 0.06894765178 0.027024499287 
0.017297158063 0.051523199259 0.034196204277 -0.029513261594 0.16173266479 0.02841832475 0.058714015235 0.0017270508604 -0.0052240249124 
-0.0039913111495 0.045910097796 0.029473773607 0.058087612515 0.020893658911 0.057573748421 0.043123495637 0.038606691854 0.058239888712 
-0.093883439559 0.14252171153 0.082969879669 -0.0021049833578 0.38899466784 -0.000126565171 0.045861773211 0.010416166083 0.066043061475 
-0.029110559063 0.018207847277 -0.076876075613 0.073524872124 -0.0089080269211 0.085640873075 -0.046054797591 0.035397971386 0.092164701031 
-0.021958819501 0.054191597684 0.048298013441 -0.19451755495 0.039668183639 -0.064885900376 0.024759942221 0.078324211804 0.044473428344 
-0.00052740355422 0.38710693906 -0.0011288573072 -0.0020887119363 0.38986351732 -0.0070491576428 0.040692486761 0.040028993819 0.016705036457 
-0.028734807798 0.24194419456 -0.0010331898798 -0.0033120346244 0.036987221945 0.014520019751 -0.01446684177 0.032878853391 -0.0024533046815 
0.13707801014 0.10385176188 0.11392848556 -0.0016610994383 0.29654940525 0.0087496036546 0.0029908071981 0.23661087759 -0.014510026365 
-0.057336234664 0.064076704248 -0.023730783112 0.13835760544 0.04733325279 -0.0010310392601 -0.078040903224 0.012317233288 -0.0024669848271 
-0.055878085168 0.018552676409 0.077319089015 0.015763933914 0.0065948336356 0.094849352011 0.0058662362083 -0.0047575354982 0.1205492242 
0.021557993965 0.0033648425129 0.078175290305 0.048689639876 0.084903789202 0.047570047855 0.012190777852 0.32929773123 0.012633784709 
0.048787878444 0.025521855283 0.10157198777 -0.018697854525 0.19836571032 0.034234384001 0.091413329724 -0.020382990837 0.10182231993 
0.031131950044 0.032706997154 0.10031977015 -0.13645977946 0.12244416595 0.087249181893 -0.076416026534 0.17725342488 -0.024615689046 
0.047994318171 0.039418765254 0.071322416347 -0.00044574958215 0.029243049089 0.10201140501 -0.012212897362 0.075823784745 -0.18361467497 
-0.05154172184 0.10765359284 0.035977243928 0.044804293718 0.32049728826 -0.0062287931832 -0.14684183204 0.0079436499743 -0.079768840288 
0.08060329694 0.0325350987 0.01274380369 0.0002814165965 0.39586236908 -0.0042450652735 -0.00036883905222 0.40129851273 -0.0077537456699 
0 0.38761842277 0 -0.0033082998542 0.13377592098 -0.0033247496929 0.0012503121485 0.38702661056 -0.005926866043 
-0.0046666478446 0.28784143851 -0.0046798590522 0.10242992302 0.085288386905 0.0090130720863 0.033991363402 0.19247764267 -0.017820487125 
0.084445824934 -0.027829691904 0.02430493986 -0.018673129003 0.22509155007 0.014510142177 0 0.3987994427 6.9043932791e-06 
0.0024336544151 0.40286253151 0.0042270621109 -0.002634341908 0.41110012695 0.0010203462189 0.042256730961 0.27150018908 0.1254322865 
-0.00032362647397 0.39932044177 -0.0012764948875 -0.027545708121 0.38422685286 0.11030070993 0.00051441565056 0.39864167423 0.0017178022421 
-0.077949132161 0.1640541936 -0.025301185442 -0.019718467175 0.29448520505 0.12092734083 0.020188320678 0.34687093157 -0.00040929342903 
0.086053560792 0.32893311383 -0.0017445639745 0.11995622452 0.011863667935 0.0047441828118 -0.066149991525 0.065765809604 -0.020818425339 
-0.22880268682 0.26789886558 -0.019808350501 -0.027869684498 0.28402964143 -0.027869684498 0.027869684498 0.28402964143 -0.027869684498 
-0.027869684498 0.51390203134 -0.027869684498 0.027869684498 0.51390203134 -0.027869684498 -0.04125526714 0.39714501683 -0.10814853943 
0.014484300369 0.39721888679 -0.10814812224 -0.041363751989 0.62701657341 -0.10876561409 0.014375274984 0.62709110505 -0.10876690403 
-0.027869684498 0.28402964143 0.027869684498 0.027869684498 0.28402964143 0.027869684498 -0.027869684498 0.51390203134 0.027869684498 
0.027869684498 0.51390203134 0.027869684498 -0.041254969846 0.39756815431 -0.052408258422 0.01448475908 0.39764093675 -0.052409461063 
-0.041363410614 0.62743684168 -0.053027349337 0.014375689687 0.62751246083 -0.053026846719 -0.027869684498 0.28399728714 -0.032741089804 
0.027869684498 0.28399728714 -0.032741089804 -0.027869684498 0.5138839808 -0.032788350519 0.027869684498 0.5138839808 -0.032788350519 
-0.027869684498 0.28404593121 0.02300133675 0.027869684498 0.28404593121 0.02300133675 -0.027869684498 0.51390399945 0.022947959576 
0.027869684498 0.51390399945 0.022947959576 0.023345685169 0.51578868238 0.0082619304796 0.02315253801 0.51514665798 -0.047477083015 
-0.032586730671 0.5149915733 -0.047283800975 -0.032393752648 0.51563403741 0.0084552126361 0.023572681784 0.28591969952 0.0092068701751 
0.023379702087 0.28527751279 -0.046532606814 -0.032166587494 0.28576463979 0.0094001362534 -0.032359732916 0.28512289368 -0.046339308751 
-0.027437984554 0.28381665778 0.028303252029 -0.028297900317 0.2837617036 -0.027436154755 0.028300400562 0.28383861681 0.027443814697 
0.027441805653 0.28378351731 -0.028295228933 -0.027470045737 0.51368901669 0.028222490779 -0.028330390754 0.51363405991 -0.027516452888 
0.028268199319 0.51371084185 0.02736344489 0.027410033775 0.51365603029 -0.028375919114 -0.014284409368 0.29823392538 -0.038050959387 
-0.014701803387 0.29861267019 0.017688385762 0.032593195512 0.30617387952 0.0017517202064 0.041454849553 0.29772667231 -0.037633813435 
-0.013537174632 0.52810456299 -0.038603938394 -0.013954587964 0.52848074188 0.01713528591 0.042202065821 0.52759733847 -0.038186793982 
0.041784671354 0.52797344646 0.017552431535 -0.019869420224 0.27347681239 -0.015148412387 0.027425222168 0.28156419919 -0.031169693261 
-0.027869684498 0.29556041286 -0.027869684498 0.027869684498 0.29556041286 -0.027869684498 -0.028342997393 0.51141562135 -0.031658229493 
0.027395783495 0.51143677053 -0.031325733805 -0.027869684498 0.52543280277 -0.027869684498 0.027869684498 0.52543280277 -0.027869684498 