# vtk DataFile Version 5.1
Generated by LIGGGHTS
ASCII
DATASET POLYDATA
POINTS 463 float
-0.138687 0.0563714 -0.144901 -0.142378 0.0696646 -0.144204 -0.0987903 0.0845146 -0.143682 
-0.109111 0.0963767 -0.143792 -0.0741559 0.0952519 -0.143547 -0.0499045 0.136559 -0.143714 
-0.117651 0.0565315 -0.141025 -0.0718603 0.057335 -0.140362 -0.0232099 0.0908935 -0.136927 
-0.144615 0.0587871 -0.134919 -0.114202 0.0607913 -0.129714 -0.134561 0.0628116 -0.132931 
-0.045876 0.0650943 -0.129945 -0.0689136 0.0773194 -0.13235 -0.0428227 0.0755721 -0.131782 
-0.135508 0.0787415 -0.127863 -0.0168485 0.117518 -0.133629 -0.127336 0.166634 -0.131567 
-0.12789 0.0605649 -0.12488 -0.0785873 0.0565238 -0.123732 -0.00512684 0.0622521 -0.12703 
-0.0377137 0.0723598 -0.120624 -0.118617 0.0792157 -0.120365 -0.141867 0.0560423 -0.118835 
-0.117793 0.0611216 -0.117522 -0.0972114 0.0802314 -0.117319 -0.010294 0.0846263 -0.117498 
-0.108018 0.108923 -0.116456 -0.0675252 0.133874 -0.119652 -0.0234705 0.135717 -0.118957 
-0.0197951 0.057449 -0.108563 -0.0302978 0.065855 -0.109048 -0.00300101 0.0923934 -0.109566 
-0.104257 0.100003 -0.108846 -0.081169 0.096815 -0.111557 -0.0828207 0.162001 -0.110224 
-0.067446 0.0670092 -0.0992545 -0.00768637 0.0698403 -0.0994388 -0.0491374 0.0910822 -0.103527 
-0.063358 0.102422 -0.0977958 -0.0180707 0.19961 -0.0612114 -0.0376925 0.1864 -0.103091 
-0.100615 0.0839716 -0.0974895 -0.0726176 0.0655933 -0.0878672 -0.0539877 0.0691272 -0.0894502 
-0.0426847 0.0834594 -0.0827295 -0.0689913 0.155518 -0.0869798 -0.0862438 0.178671 -0.0889079 
-0.00137859 0.0627002 -0.0706225 -0.0255696 0.19988 -0.00315037 -0.13781 0.0754317 -0.0767007 
-0.0543346 0.0771898 -0.0818841 -0.0395031 0.0998972 -0.076772 -0.0456331 0.166918 -0.00115547 
-0.0276117 0.131001 -0.00480129 -0.0317182 0.0560997 -0.0687148 -0.113937 0.0632229 -0.0698563 
-0.0848825 0.15728 -0.0727564 -0.0635738 0.181658 -0.0718424 -0.115329 0.2008 -0.0710501 
-0.0981369 0.0579327 -0.0613982 -0.0244254 0.06728 -0.0673742 -0.0743378 0.0820073 -0.0673699 
-0.115971 0.126503 -0.0610455 -0.0180697 0.199609 -0.0649806 -0.0778212 0.062676 -0.0567037 
-0.0593682 0.0767142 -0.0594928 -0.0122969 0.197732 -0.0531034 -0.00785804 0.0644623 -0.0454357 
-0.0642446 0.0770696 -0.0451631 -0.0825843 0.189041 -0.0491615 -0.114687 0.0557732 -0.0368095 
-0.075375 0.0558346 -0.0457014 -0.116884 0.074512 -0.0397739 -0.102623 0.0716898 -0.0401586 
-0.00815474 0.0798267 -0.0396132 -0.0344087 0.0928311 -0.0410691 -0.0212095 0.113087 -0.0416396 
-0.0484914 0.055423 -0.0376805 -0.13728 0.0831188 -0.0381892 -0.0444564 0.0829667 -0.0328795 
-0.0610201 0.0981643 -0.0323776 -0.126017 0.110928 -0.0302665 -0.104349 0.165831 -0.0326997 
-0.127583 0.184569 -0.0307958 -0.0658117 0.0662759 -0.0244982 -0.0043322 0.0742534 -0.0226447 
-0.0369968 0.0806418 -0.0263024 -0.0907567 0.086355 -0.0274083 -0.0229834 0.106362 -0.0256132 
-0.0176768 0.145419 -0.0283412 -0.13651 0.0606018 -0.0177147 -0.0521686 0.0638165 -0.0203915 
-0.0417691 0.0725008 -0.0218693 -0.144066 0.102581 -0.0164558 -0.144302 0.121514 -0.0213226 
-0.0488331 0.160039 -0.019761 -0.108767 0.0573671 -0.0095799 -0.0733087 0.0650871 -0.0129128 
-0.13536 0.101821 -0.010091 -0.0172843 0.200488 -0.0114402 -0.137271 0.0550258 -0.00388428 
-0.0803958 0.0576283 -0.00112358 -0.0471455 0.0574754 -0.00155769 -0.117267 0.0617817 -0.00539818 
-0.102423 0.0647959 -0.00181447 -0.0157796 0.0909706 -0.00671981 -0.021839 0.199611 -0.0649816 
-0.02184 0.199612 -0.0612124 -0.133017 0.0618235 0.0056666 -0.121782 0.0634812 0.00509817 
-0.108392 0.0687582 0.00560077 -0.0716658 0.0950175 0.00478486 -0.144078 0.0610391 0.0135394 
-0.0988481 0.0587229 0.00786287 -0.0483637 0.0554274 0.0130395 -0.1303 0.0689509 0.0149247 
-0.0321344 0.0657189 0.0147087 -0.11906 0.0687144 0.0225892 -0.111863 0.0741445 0.0165156 
-0.0423511 0.0729706 0.0207961 -0.11448 0.100096 0.0215494 -0.0926726 0.101426 0.0180298 
-0.129762 0.0552066 0.0246588 -0.00869207 0.0555956 0.0286974 -0.0847174 0.0682846 0.0277065 
-0.0257329 0.0699572 0.0288962 -0.00446649 0.0713403 0.0266795 -0.0870315 0.173731 0.0242603 
-0.0483009 0.0573862 0.0317587 -0.018505 0.0577143 0.0357819 -0.10058 0.0631551 0.0325718 
-0.13045 0.0818691 0.0327342 -0.0427338 0.147884 0.0364798 -0.102755 0.175411 0.034387 
-0.0669027 0.0614857 0.0427122 -0.134094 0.0688577 0.0436711 -0.0370477 0.072548 0.0370895 
-0.0146977 0.0914752 0.0426905 -0.130736 0.116963 0.0436269 -0.0660782 0.191326 0.0377727 
-0.127167 0.0604017 0.0494577 -0.0875863 0.0565768 0.0528627 -0.075889 0.0607006 0.046963 
-0.0352719 0.0621665 0.0464008 -0.0898735 0.165546 0.0472579 -0.0991032 0.180034 0.0493682 
-0.134641 0.0577959 0.0592115 -0.142433 0.0688426 0.0559146 -0.0186571 0.0676022 0.0571802 
-0.111077 0.148266 0.0588029 -0.0401407 0.181992 0.0590509 -0.000315968 0.0817203 0.0776508 
-0.0476398 0.147307 0.143296 -0.00899964 0.0597937 0.0648227 -0.102568 0.0900231 0.0682645 
-0.0713357 0.108212 0.0642704 -0.106768 0.196371 0.062131 -0.0833421 0.0970245 0.144006 
-0.0885433 0.0838548 0.143201 -0.136302 0.0591201 0.072756 -0.120372 0.0871568 0.0697265 
-0.02563 0.107342 0.0730674 -0.12935 0.193834 0.0745874 -0.139611 0.198964 0.0708942 
-0.0498911 0.199267 0.0729587 -0.0484048 0.0639441 0.0764046 -0.0839451 0.140963 0.077395 
-0.0260893 0.188379 0.0816062 -0.136427 0.104677 0.0866221 -0.041876 0.162802 0.0870016 
-0.11173 0.169485 0.0897856 -0.141346 0.186239 0.0840536 -0.120298 0.198702 0.0836254 
-0.00366155 0.0613686 0.0907473 -0.0379488 0.0727688 0.0905914 -0.0169162 0.169982 0.0973861 
-0.041404 0.0659372 0.103744 -0.0296314 0.106781 0.100498 -0.120892 0.160459 0.0992254 
-0.0303033 0.176358 0.0998272 -0.140335 0.181609 0.104457 -0.0811321 0.190075 0.101411 
-0.0598871 0.116806 0.106052 -0.0615355 0.109363 0.114603 -0.0513052 0.129983 0.115206 
-0.109689 0.160701 0.113556 -0.07241 0.16181 0.119603 -0.041509 0.170331 0.115291 
-0.029593 0.174521 0.112979 -0.0294536 0.0587617 0.120147 -0.0773635 0.136211 0.125955 
-0.0502887 0.153851 0.123039 -0.131966 0.165246 0.121454 -0.0758678 0.111253 0.134155 
-0.120722 0.14651 0.130466 -0.0923696 0.145941 0.129891 -0.136582 0.0684974 0.140541 
-0.116549 0.169308 0.141323 -0.0962862 0.0563459 0.143122 -0.0152369 0.0661303 0.144969 
-0.0536604 0.199268 0.0691894 -0.0536604 0.199267 0.0729586 -0.0498911 0.199268 0.0691894 
-0.110697 0.227092 -0.102945 -0.103136 0.227097 -0.102945 -0.110704 0.246177 -0.102988 
-0.103143 0.246183 -0.102988 -0.110697 0.227122 -0.0953846 -0.103136 0.227127 -0.0953847 
-0.110704 0.246207 -0.0954278 -0.103143 0.246212 -0.0954277 -0.0531352 0.207062 -0.0858484 
-0.0489668 0.207062 -0.0858484 -0.0531352 0.207062 -0.0816801 -0.0489668 0.207062 -0.0816801 
-0.0553461 0.205195 -0.0471309 -0.0553461 0.205195 -0.0518979 -0.0505791 0.205195 -0.0471309 
-0.0505791 0.205195 -0.0518979 -0.0553461 0.21276 -0.0518979 -0.0553461 0.21276 -0.0471309 
-0.0505791 0.21276 -0.0471309 -0.0505791 0.21276 -0.0518979 -0.0531352 0.201966 -0.085848 
-0.0489668 0.201966 -0.085848 -0.0531352 0.201967 -0.0816796 -0.0489668 0.201967 -0.0816796 
-0.0180683 0.20332 -0.0649817 -0.0180693 0.203321 -0.0612124 -0.0218375 0.203321 -0.0649827 
-0.0218385 0.203322 -0.0612134 -0.0276004 0.242091 0.0298644 -0.0198408 0.241639 0.0299454 
-0.0276939 0.241718 0.0376242 -0.0199343 0.241265 0.0377052 -0.0271781 0.249851 0.0301696 
-0.0272716 0.249477 0.0379293 -0.0194185 0.249398 0.0302506 -0.0195119 0.249025 0.0380103 
-0.0537443 0.208243 0.0594363 -0.0493764 0.208243 0.0594364 -0.0974544 0.257398 0.0536116 
-0.0864707 0.257399 0.0536117 -0.0974567 0.294274 0.0536171 -0.0864731 0.294275 0.0536172 
-0.0537444 0.208241 0.0638042 -0.0493765 0.208241 0.0638043 -0.0974545 0.257394 0.0645952 
-0.0864709 0.257395 0.0645953 -0.0974568 0.29427 0.0646007 -0.0864732 0.294272 0.0646008 
-0.0537443 0.202437 0.0594337 -0.0493764 0.202437 0.0594338 -0.0537444 0.202435 0.0638016 
-0.0493765 0.202435 0.0638017 -0.0498911 0.202978 0.0729591 -0.0498911 0.202978 0.0691898 
-0.0536604 0.202978 0.0691898 -0.0536604 0.202978 0.0729591 0.0141639 0.0555058 -0.144685 
0.0230585 0.0601501 -0.144568 0.0426211 0.0593405 -0.142792 0.00186591 0.0641205 -0.143694 
0.142676 0.106399 -0.143361 0.116919 0.129711 -0.144028 0.106395 0.146914 -0.144462 
0.0073429 0.056674 -0.135193 0.0318334 0.0555755 -0.138242 0.108279 0.0608276 -0.138683 
0.00249076 0.0844867 -0.136719 0.0711531 0.0817067 -0.138071 0.112548 0.0815295 -0.140327 
0.0137956 0.0855645 -0.137548 0.10308 0.110012 -0.141707 0.0615401 0.0573006 -0.12763 
0.0292089 0.0631942 -0.129668 0.0539169 0.0624864 -0.132079 0.0325586 0.0784418 -0.129359 
0.0629206 0.0800041 -0.127936 0.098501 0.0845623 -0.133047 0.102371 0.0579164 -0.124556 
0.0117598 0.0676885 -0.127026 0.0370412 0.0652249 -0.121733 0.0728349 0.0823185 -0.125135 
0.119883 0.155067 -0.122339 0.132301 0.0684893 -0.114689 0.144793 0.0622649 -0.112835 
0.0901732 0.0708181 -0.113755 0.0237157 0.0816341 -0.115762 0.00502108 0.101783 -0.117872 
0.099007 0.163663 -0.117353 0.0137407 0.055281 -0.105903 0.0698469 0.0651108 -0.106436 
0.0480929 0.0863808 -0.1112 0.0340927 0.12674 -0.11036 0.0282474 0.0574462 -0.101903 
0.0779308 0.0852759 -0.10023 0.0493879 0.122111 -0.101215 0.0944817 0.143102 -0.100782 
0.117635 0.171035 -0.10494 0.00420037 0.0716193 -0.0938586 0.0518517 0.0726696 -0.0964368 
0.0125932 0.0865274 -0.0915514 0.0437136 0.0918786 -0.0927873 0.136167 0.165211 -0.0934063 
0.0369081 0.0598061 -0.087302 0.14382 0.0569569 -0.0834116 0.0283437 0.0738557 -0.0814162 
0.0922778 0.0874505 -0.0828924 0.0660315 0.154884 -0.0875295 0.0201573 0.0561011 -0.0818336 
0.0457077 0.0578776 -0.0742923 0.0065089 0.0658722 -0.0787078 0.121995 0.0632588 -0.0778872 
0.0417466 0.0730153 -0.0772114 0.12273 0.10724 -0.0811928 0.0745473 0.122942 -0.0757691 
0.0127997 0.0599962 -0.0729192 0.000833848 0.109484 -0.0984964 0.0304351 0.0719573 -0.0699257 
0.0650121 0.0695843 -0.0703387 0.0838553 0.103355 -0.0727819 0.0356891 0.110022 -0.0704556 
0.110613 0.144551 -0.0708607 0.0791963 0.169916 -0.0733826 0.0503992 0.104281 -0.0623079 
0.0605052 0.130872 -0.0600151 0.08011 0.0673234 -0.0522308 0.0480022 0.122811 -0.0566553 
0.026037 0.126837 -0.0528738 0.017171 0.142922 -0.0554917 0.0853605 0.167281 -0.0564998 
0.116199 0.172156 -0.0556861 0.0658769 0.180922 -0.0536194 0.121555 0.0633603 -0.0500865 
0.140939 0.0764837 -0.0518673 0.14329 0.112557 -0.0441818 0.0436221 0.151064 -0.0436603 
0.0682012 0.161904 -0.0405508 0.0841556 0.167737 -0.0407239 0.0373488 0.188373 -0.0381015 
0.0727404 0.0592718 -0.0364397 0.114905 0.0601676 -0.0353431 0.0638464 0.0638008 -0.0356015 
0.0721703 0.102691 -0.0336169 0.00867045 0.136928 -0.0359659 0.0404476 0.140217 -0.0325478 
0.02209 0.0850826 -0.0282499 0.131042 0.0892825 -0.0284604 0.0485041 0.0971506 -0.022652 
0.126745 0.101738 -0.0290612 0.0252384 0.116512 -0.026957 0.0190584 0.148276 -0.0269853 
0.0356017 0.0644228 -0.0153731 0.040579 0.0851027 -0.0209339 0.144645 0.081086 -0.0212098 
0.0530704 0.108158 -0.0140852 0.0204859 0.0611962 -0.0128779 0.11365 0.0614873 -0.0111248 
0.140603 0.0796066 -0.00845588 0.00698758 0.156568 -0.0108629 0.144424 0.154057 -0.0079436 
0.0303545 0.0581572 -0.00603793 0.0814999 0.0770391 -0.00408882 0.12989 0.0729235 -0.00245259 
0.0777779 0.101302 -0.00540463 0.13643 0.108176 -0.0060786 0.0685809 0.0580653 0.00329096 
0.116209 0.0652957 0.00331166 0.000640162 0.0909604 0.00141338 0.133331 0.13919 0.00606133 
0.061299 0.0717946 0.00984654 0.0933704 0.0786855 0.00727032 0.0241461 0.0914194 0.0110507 
0.104928 0.0938217 0.00921413 0.0220781 0.146161 0.0116545 0.0841193 0.0660675 0.0149538 
0.10386 0.0674749 0.0182667 0.00270603 0.0715817 0.0179274 0.0596158 0.102316 0.0188337 
0.107306 0.0600571 0.0294149 0.0742452 0.063764 0.0290395 0.0710457 0.0783799 0.0283071 
0.0291861 0.0989287 0.0260469 0.025547 0.151026 0.0243737 0.0337126 0.173582 0.0275647 
0.0351941 0.0654322 0.0311642 0.118769 0.0723237 0.0316243 0.0599484 0.081717 0.0376583 
0.0147845 0.104484 0.035563 0.075565 0.0568829 0.0377652 0.134078 0.055586 0.0414339 
0.133533 0.072345 0.0395206 0.0775973 0.0840455 0.0398345 0.0870575 0.0871384 0.0449794 
0.105641 0.12769 0.0403816 0.0315408 0.179079 0.0388384 0.104853 0.181204 0.0426925 
0.0574755 0.0647717 0.0460054 0.141113 0.0776186 0.0466725 0.0153794 0.0838416 0.0478527 
0.0364399 0.0574365 0.0578703 0.138196 0.0692061 0.0554397 0.0852251 0.146612 0.0569815 
0.0380268 0.152045 0.0530049 0.000722414 0.174234 0.0536193 0.0516598 0.0617599 0.0653908 
0.114557 0.0826281 0.067875 0.000582045 0.167106 0.0625438 0.0995806 0.190334 0.0667312 
0.0202481 0.0591194 0.0736785 0.0564748 0.177194 0.0717795 0.135328 0.186056 0.0716291 
0.10825 0.200285 0.0738566 0.138626 0.0634363 0.0810901 0.115026 0.200926 0.143128 
0.119502 0.0966089 0.0810891 0.0268344 0.0553206 0.0893138 0.0142974 0.10857 0.0849016 
0.056934 0.113327 0.0833023 0.0394651 0.0636487 0.0971267 0.0323537 0.0948558 0.0919376 
0.140751 0.145652 0.0925015 0.0905229 0.170726 0.0905545 0.116285 0.0692077 0.102061 
0.133387 0.0724563 0.0989811 0.136461 0.0860393 0.104085 0.0151593 0.115069 0.0999953 
0.100655 0.120096 0.103755 0.0706661 0.169241 0.104798 0.122251 0.0800406 0.107241 
0.0557198 0.103292 0.109715 0.0687701 0.114685 0.11133 0.127797 0.128456 0.109421 
0.0977541 0.0588322 0.115642 0.0764729 0.185732 0.117256 0.0428785 0.199051 0.116823 
0.0142505 0.0554299 0.12269 0.0640605 0.10131 0.120334 0.0320963 0.102344 0.1215 
0.094661 0.117761 0.123763 0.0234398 0.143126 0.123728 0.0141848 0.187686 0.122583 
0.131173 0.0553331 0.134079 0.0195558 0.0635652 0.133996 0.0330283 0.111597 0.130502 
0.128636 0.191815 0.128223 0.134828 0.0655354 0.139156 0.0157119 0.0832464 0.135904 
0.14338 0.0970298 0.137867 0.0806615 0.16005 0.139632 0.0429886 0.167348 0.135866 
0.0139417 0.184883 0.144082 0.0414466 0.130284 0.000121369 0.00546256 0.207558 0.141025 
0.00546518 0.207564 0.136856 0.00129683 0.207578 0.136854 0.00129421 0.207572 0.141022 
0.00543825 0.202463 0.141016 0.00127252 0.202482 0.136845 0.00544087 0.202468 0.136847 
0.0012699 0.202477 0.141013 
VERTICES 464 463
OFFSETS vtktypeint64
0 1 2 3 4 5 6 7 8 
9 10 11 12 13 14 15 16 17 
18 19 20 21 22 23 24 25 26 
27 28 29 30 31 32 33 34 35 
36 37 38 39 40 41 42 43 44 
45 46 47 48 49 50 51 52 53 
54 55 56 57 58 59 60 61 62 
63 64 65 66 67 68 69 70 71 
72 73 74 75 76 77 78 79 80 
81 82 83 84 85 86 87 88 89 
90 91 92 93 94 95 96 97 98 
99 100 101 102 103 104 105 106 107 
108 109 110 111 112 113 114 115 116 
117 118 119 120 121 122 123 124 125 
126 127 128 129 130 131 132 133 134 
135 136 137 138 139 140 141 142 143 
144 145 146 147 148 149 150 151 152 
153 154 155 156 157 158 159 160 161 
162 163 164 165 166 167 168 169 170 
171 172 173 174 175 176 177 178 179 
180 181 182 183 184 185 186 187 188 
189 190 191 192 193 194 195 196 197 
198 199 200 201 202 203 204 205 206 
207 208 209 210 211 212 213 214 215 
216 217 218 219 220 221 222 223 224 
225 226 227 228 229 230 231 232 233 
234 235 236 237 238 239 240 241 242 
243 244 245 246 247 248 249 250 251 
252 253 254 255 256 257 258 259 260 
261 262 263 264 265 266 267 268 269 
270 271 272 273 274 275 276 277 278 
279 280 281 282 283 284 285 286 287 
288 289 290 291 292 293 294 295 296 
297 298 299 300 301 302 303 304 305 
306 307 308 309 310 311 312 313 314 
315 316 317 318 319 320 321 322 323 
324 325 326 327 328 329 330 331 332 
333 334 335 336 337 338 339 340 341 
342 343 344 345 346 347 348 349 350 
351 352 353 354 355 356 357 358 359 
360 361 362 363 364 365 366 367 368 
369 370 371 372 373 374 375 376 377 
378 379 380 381 382 383 384 385 386 
387 388 389 390 391 392 393 394 395 
396 397 398 399 400 401 402 403 404 
405 406 407 408 409 410 411 412 413 
414 415 416 417 418 419 420 421 422 
423 424 425 426 427 428 429 430 431 
432 433 434 435 436 437 438 439 440 
441 442 443 444 445 446 447 448 449 
450 451 452 453 454 455 456 457 458 
459 460 461 462 463 
CONNECTIVITY vtktypeint64
0 1 2 3 4 5 6 7 8 
9 10 11 12 13 14 15 16 17 
18 19 20 21 22 23 24 25 26 
27 28 29 30 31 32 33 34 35 
36 37 38 39 40 41 42 43 44 
45 46 47 48 49 50 51 52 53 
54 55 56 57 58 59 60 61 62 
63 64 65 66 67 68 69 70 71 
72 73 74 75 76 77 78 79 80 
81 82 83 84 85 86 87 88 89 
90 91 92 93 94 95 96 97 98 
99 100 101 102 103 104 105 106 107 
108 109 110 111 112 113 114 115 116 
117 118 119 120 121 122 123 124 125 
126 127 128 129 130 131 132 133 134 
135 136 137 138 139 140 141 142 143 
144 145 146 147 148 149 150 151 152 
153 154 155 156 157 158 159 160 161 
162 163 164 165 166 167 168 169 170 
171 172 173 174 175 176 177 178 179 
180 181 182 183 184 185 186 187 188 
189 190 191 192 193 194 195 196 197 
198 199 200 201 202 203 204 205 206 
207 208 209 210 211 212 213 214 215 
216 217 218 219 220 221 222 223 224 
225 226 227 228 229 230 231 232 233 
234 235 236 237 238 239 240 241 242 
243 244 245 246 247 248 249 250 251 
252 253 254 255 256 257 258 259 260 
261 262 263 264 265 266 267 268 269 
270 271 272 273 274 275 276 277 278 
279 280 281 282 283 284 285 286 287 
288 289 290 291 292 293 294 295 296 
297 298 299 300 301 302 303 304 305 
306 307 308 309 310 311 312 313 314 
315 316 317 318 319 320 321 322 323 
324 325 326 327 328 329 330 331 332 
333 334 335 336 337 338 339 340 341 
342 343 344 345 346 347 348 349 350 
351 352 353 354 355 356 357 358 359 
360 361 362 363 364 365 366 367 368 
369 370 371 372 373 374 375 376 377 
378 379 380 381 382 383 384 385 386 
387 388 389 390 391 392 393 394 395 
396 397 398 399 400 401 402 403 404 
405 406 407 408 409 410 411 412 413 
414 415 416 417 418 419 420 421 422 
423 424 425 426 427 428 429 430 431 
432 433 434 435 436 437 438 439 440 
441 442 443 444 445 446 447 448 449 
450 451 452 453 454 455 456 457 458 
459 460 461 462 
POINT_DATA 463
FIELD FieldData 8
id 1 463 int
3781 3801 3994 3970 3744 3884 3745 2648 3937 
3894 2755 2739 2901 3917 3749 3823 3726 3907 
3785 3931 3730 3296 3023 3024 3586 3981 3773 
3987 3802 3959 3844 3852 3858 3359 3180 3403 
3685 3943 3903 3830 4063 3734 3908 3757 3960 
3242 3976 3824 3966 3134 3716 3808 3873 3845 
3953 3731 3727 3949 3767 3026 3360 3877 3932 
3243 4062 3814 3738 3181 2962 3758 3687 3853 
3918 3135 2961 2749 3809 3774 3961 3896 2824 
3686 2823 3878 3759 3786 2482 3995 3939 3244 
3519 3297 3919 3787 3920 3951 3895 3885 3938 
3815 3133 3925 3746 3975 3182 3971 3879 4058 
4059 3982 2902 3831 3996 3688 3720 3962 3825 
3782 3803 3950 3940 3909 3988 3836 3810 3775 
3587 3835 3794 3747 3847 3631 3955 3989 3783 
3788 3854 3906 3846 3728 3735 3760 3768 3911 
3406 2826 3769 3863 3864 3461 3859 3795 3325 
3690 3871 3910 3761 3299 3956 3875 3721 3941 
3765 3407 3245 4071 3136 3904 3588 3776 3898 
3865 3736 3183 2550 3954 3817 3754 2509 3886 
2649 3804 3748 3997 3963 3874 3933 3880 3866 
3855 3977 3837 3984 3887 3632 3921 3897 3729 
3722 3689 3848 4066 4067 4070 4018 4022 4020 
4024 4019 4023 4021 4017 4044 4048 4045 4041 
4027 4026 4031 4030 4028 4029 4025 4032 4042 
4046 4043 4047 4064 4057 4060 4061 4010 4014 
4011 4015 4012 4013 4016 4009 4036 4040 4002 
4006 4004 4008 4037 4033 4003 4007 4005 4001 
4034 4038 4035 4039 4065 4072 4068 4069 3899 
3849 3161 3927 3876 3905 3942 3972 3818 3934 
3952 3811 3900 3789 3957 3741 3964 3838 3762 
3860 3440 3717 3978 2927 3784 3965 3945 3867 
2989 3922 3025 3944 3405 3755 3985 3796 3888 
3856 2867 3666 3839 3819 2591 2481 3778 3868 
3665 3869 3208 3441 3826 3737 2748 3766 3812 
3770 3712 3691 3805 3711 3889 3162 3840 3881 
3386 3832 3806 3262 3777 3797 3891 3793 3841 
3827 3813 2483 3850 2751 3929 3928 3842 3713 
3324 3851 3723 3614 2750 3973 3763 3946 3999 
3771 3915 3990 3385 3991 3890 3613 3714 3914 
3442 3882 3912 3779 3923 3791 3870 3913 3764 
2690 3263 3742 3820 3732 2790 3828 3084 3718 
3692 2963 3668 3979 3974 3667 2484 3986 3518 
3790 3998 3750 3924 3916 2928 3947 3993 3892 
3799 3756 3807 3739 3715 3719 3298 3751 4000 
3821 3834 3926 3833 3862 3520 3861 2752 3752 
3209 3772 3163 3958 3843 3857 3443 3968 3798 
3780 3829 3930 3326 3733 3983 3980 3822 2868 
3872 3800 3992 3935 3753 3521 3792 3725 2753 
3902 3743 3694 3936 3883 3967 3724 3444 3969 
3693 3948 3893 2990 3901 4049 4056 4052 4053 
4055 4050 4054 4051 
type 1 463 int
2 2 2 2 2 2 2 2 2 
2 2 2 2 2 2 2 2 2 
2 2 2 2 2 2 2 2 2 
2 2 2 2 2 2 2 2 2 
2 2 2 2 2 2 2 2 2 
2 2 2 2 2 2 2 2 2 
2 2 2 2 2 2 2 2 2 
2 2 2 2 2 2 2 2 2 
2 2 2 2 2 2 2 2 2 
2 2 2 2 2 2 2 2 2 
2 2 2 2 2 2 2 2 2 
2 2 2 2 2 2 2 2 2 
2 2 2 2 2 2 2 2 2 
2 2 2 2 2 2 2 2 2 
2 2 2 2 2 2 2 2 2 
2 2 2 2 2 2 2 2 2 
2 2 2 2 2 2 2 2 2 
2 2 2 2 2 2 2 2 2 
2 2 2 2 2 2 2 2 2 
2 2 2 2 2 2 2 2 2 
2 2 2 2 2 2 2 2 2 
2 2 2 2 2 2 2 2 2 
2 2 2 2 2 2 2 2 2 
2 2 2 2 2 2 2 2 2 
2 2 2 2 2 2 2 2 2 
2 2 2 2 2 2 2 2 2 
2 2 2 2 2 2 2 2 2 
2 2 2 2 2 2 2 2 2 
2 2 2 2 2 2 2 2 2 
2 2 2 2 2 2 2 2 2 
2 2 2 2 2 2 2 2 2 
2 2 2 2 2 2 2 2 2 
2 2 2 2 2 2 2 2 2 
2 2 2 2 2 2 2 2 2 
2 2 2 2 2 2 2 2 2 
2 2 2 2 2 2 2 2 2 
2 2 2 2 2 2 2 2 2 
2 2 2 2 2 2 2 2 2 
2 2 2 2 2 2 2 2 2 
2 2 2 2 2 2 2 2 2 
2 2 2 2 2 2 2 2 2 
2 2 2 2 2 2 2 2 2 
2 2 2 2 2 2 2 2 2 
2 2 2 2 2 2 2 2 2 
2 2 2 2 2 2 2 2 2 
2 2 2 2 2 2 2 2 2 
2 2 2 2 2 2 2 2 2 
2 2 2 2 2 2 2 2 2 
2 2 2 2 2 2 2 2 2 
2 2 2 2 2 2 2 2 2 
2 2 2 2 2 2 2 2 2 
2 2 2 2 
i 3 463 int
0 0 0 0 0 0 0 0 0 
0 0 0 0 0 0 0 0 0 
0 0 0 0 0 0 0 0 0 
0 0 0 0 0 0 0 0 0 
0 0 0 0 0 0 0 0 0 
0 0 0 0 0 0 0 0 0 
0 0 0 0 0 0 0 0 0 
0 0 0 0 0 0 0 0 0 
0 0 0 0 0 0 0 0 0 
0 0 0 0 0 0 0 0 0 
0 0 0 0 0 0 0 0 0 
0 0 0 0 0 0 0 0 0 
0 0 0 0 0 0 0 0 0 
0 0 0 0 0 0 0 0 0 
0 0 0 0 0 0 0 0 0 
0 0 0 0 0 0 0 0 0 
0 0 0 0 0 0 0 0 0 
0 0 0 0 0 0 0 0 0 
0 0 0 0 0 0 0 0 0 
0 0 0 0 0 0 0 0 0 
0 0 0 0 0 0 0 0 0 
0 0 0 0 0 0 0 0 0 
0 0 0 0 0 0 0 0 0 
0 0 0 0 0 0 0 0 0 
0 0 0 0 0 0 0 0 0 
0 0 0 0 0 0 0 0 0 
0 0 0 0 0 0 0 0 0 
0 0 0 0 0 0 0 0 0 
0 0 0 0 0 0 0 0 0 
0 0 0 0 0 0 0 0 0 
0 0 0 0 0 0 0 0 0 
0 0 0 0 0 0 0 0 0 
0 0 0 0 0 0 0 0 0 
0 0 0 0 0 0 0 0 0 
0 0 0 0 0 0 0 0 0 
0 0 0 0 0 0 0 0 0 
0 0 0 0 0 0 0 0 0 
0 0 0 0 0 0 0 0 0 
0 0 0 0 0 0 0 0 0 
0 0 0 0 0 0 0 0 0 
0 0 0 0 0 0 0 0 0 
0 0 0 0 0 0 0 0 0 
0 0 0 0 0 0 0 0 0 
0 0 0 0 0 0 0 0 0 
0 0 0 0 0 0 0 0 0 
0 0 0 0 0 0 0 0 0 
0 0 0 0 0 0 0 0 0 
0 0 0 0 0 0 0 0 0 
0 0 0 0 0 0 0 0 0 
0 0 0 0 0 0 0 0 0 
0 0 0 0 0 0 0 0 0 
0 0 0 0 0 0 0 0 0 
0 0 0 0 0 0 0 0 0 
0 0 0 0 0 0 0 0 0 
0 0 0 0 0 0 0 0 0 
0 0 0 0 0 0 0 0 0 
0 0 0 0 0 0 0 0 0 
0 0 0 0 0 0 0 0 0 
0 0 0 0 0 0 0 0 0 
0 0 0 0 0 0 0 0 0 
0 0 0 0 0 0 0 0 0 
0 0 0 0 0 0 0 0 0 
0 0 0 0 0 0 0 0 0 
0 0 0 0 0 0 0 0 0 
0 0 0 0 0 0 0 0 0 
0 0 0 0 0 0 0 0 0 
0 0 0 0 0 0 0 0 0 
0 0 0 0 0 0 0 0 0 
0 0 0 0 0 0 0 0 0 
0 0 0 0 0 0 0 0 0 
0 0 0 0 0 0 0 0 0 
0 0 0 0 0 0 0 0 0 
0 0 0 0 0 0 0 0 0 
0 0 0 0 0 0 0 0 0 
0 0 0 0 0 0 0 0 0 
0 0 0 0 0 0 0 0 0 
0 0 0 0 0 0 0 0 0 
0 0 0 0 0 0 0 0 0 
0 0 0 0 0 0 0 0 0 
0 0 0 0 0 0 0 0 0 
0 0 0 0 0 0 0 0 0 
0 0 0 0 0 0 0 0 0 
0 0 0 0 0 0 0 0 0 
0 0 0 0 0 0 0 0 0 
0 0 0 0 0 0 0 0 0 
0 0 0 0 0 0 0 0 0 
0 0 0 0 0 0 0 0 0 
0 0 0 0 0 0 0 0 0 
0 0 0 0 0 0 0 0 0 
0 0 0 0 0 0 0 0 0 
0 0 0 0 0 0 0 0 0 
0 0 0 0 0 0 0 0 0 
0 0 0 0 0 0 0 0 0 
0 0 0 0 0 0 0 0 0 
0 0 0 0 0 0 0 0 0 
0 0 0 0 0 0 0 0 0 
0 0 0 0 0 0 0 0 0 
0 0 0 0 0 0 0 0 0 
0 0 0 0 0 0 0 0 0 
0 0 0 0 0 0 0 0 0 
0 0 0 0 0 0 0 0 0 
0 0 0 0 0 0 0 0 0 
0 0 0 0 0 0 0 0 0 
0 0 0 0 0 0 0 0 0 
0 0 0 0 0 0 0 0 0 
0 0 0 0 0 0 0 0 0 
0 0 0 0 0 0 0 0 0 
0 0 0 0 0 0 0 0 0 
0 0 0 0 0 0 0 0 0 
0 0 0 0 0 0 0 0 0 
0 0 0 0 0 0 0 0 0 
0 0 0 0 0 0 0 0 0 
0 0 0 0 0 0 0 0 0 
0 0 0 0 0 0 0 0 0 
0 0 0 0 0 0 0 0 0 
0 0 0 0 0 0 0 0 0 
0 0 0 0 0 0 0 0 0 
0 0 0 0 0 0 0 0 0 
0 0 0 0 0 0 0 0 0 
0 0 0 0 0 0 0 0 0 
0 0 0 0 0 0 0 0 0 
0 0 0 0 0 0 0 0 0 
0 0 0 0 0 0 0 0 0 
0 0 0 0 0 0 0 0 0 
0 0 0 0 0 0 0 0 0 
0 0 0 0 0 0 0 0 0 
0 0 0 0 0 0 0 0 0 
0 0 0 0 0 0 0 0 0 
0 0 0 0 0 0 0 0 0 
0 0 0 0 0 0 0 0 0 
0 0 0 0 0 0 0 0 0 
0 0 0 0 0 0 0 0 0 
0 0 0 0 0 0 0 0 0 
0 0 0 0 0 0 0 0 0 
0 0 0 0 0 0 0 0 0 
0 0 0 0 0 0 0 0 0 
0 0 0 0 0 0 0 0 0 
0 0 0 0 0 0 0 0 0 
0 0 0 0 0 0 0 0 0 
0 0 0 0 0 0 0 0 0 
0 0 0 0 0 0 0 0 0 
0 0 0 0 0 0 0 0 0 
0 0 0 0 0 0 0 0 0 
0 0 0 0 0 0 0 0 0 
0 0 0 0 0 0 0 0 0 
0 0 0 0 0 0 0 0 0 
0 0 0 0 0 0 0 0 0 
0 0 0 0 0 0 0 0 0 
0 0 0 0 0 0 0 0 0 
0 0 0 0 0 0 0 0 0 
0 0 0 0 0 0 0 0 0 
0 0 0 0 0 0 0 0 0 
0 0 0 0 0 0 0 0 0 
0 0 0 0 0 0 0 0 0 
0 0 0 
v 3 463 double
0.0080156891962 -0.0015029605931 0.004447886628 0.010048934566 -0.00070430313784 0.0034683114765 -0.015970077835 0.15166809512 0.0078683031147 
-0.13317801248 0.16221021249 0.0070055395523 0.0084999301845 0.1323890659 0.0081926522313 0.0041098429884 0.30328549985 0.0085481915591 
-0.0056303209371 0.0085283445581 0.016039859049 -0.027173646627 0.011902077028 0.021408443641 0.00042695319134 0.13846042764 0.029105660503 
0.0046274359853 0.008066801115 -0.0032981339191 -0.015825932323 -0.0093599622889 0.054880867859 0.0086390268809 0.038845535794 -0.0015567670795 
0.019798951085 0.040401127349 0.0076420378047 -0.078830096885 0.05744859893 0.00019912973901 -0.19048707261 0.037453699347 -0.044591951551 
-0.027682094838 0.035560805087 0.07204171858 0.088754276994 0.22662720955 0.01755179333 0 0.410001241 0 
-0.021953360345 0.025884201396 0.04599242959 -0.055110835015 0.016838623604 0.044337729087 -0.0073663242247 0.069707047504 -0.21902865838 
0.012718550083 0.067616469755 0.01425317236 -0.032235806057 0.015450186834 0.090000174597 0.012445841211 0.010247161759 0.022377678425 
-0.052806535397 0.024323413529 0.073682984456 0.096087284017 0.12261288527 -0.004294039915 -0.046543241901 0.073906791384 0.057776194531 
-0.031250205073 0.21919385107 0.082559184695 -0.040956546694 0.26237529859 -0.077021290032 -0.00066328633309 0.27334262606 0.093316999735 
-0.023837693753 0.013424326694 0.030482934101 -0.024108631974 0.052866387327 -0.0092589620461 0.0527175037 0.1461298439 -0.014994661505 
-0.097613623005 0.14261836488 -0.069878233524 -0.005644904192 0.11634111591 0.004857108426 -0.0096575554909 0.27005267014 0.0080604148417 
0.12933529232 0.042588217061 0.051919416551 0.010421709988 0.032597662155 0.089304931032 0.035121297983 0.12847363527 0.096812815135 
-0.02568388976 0.17898130461 0.043235618101 0.041095430501 0.39983244203 0.018062713739 0 0.39896583638 0 
-0.21558529215 -0.019513045433 -0.17941226195 0.17906924697 0.04465336239 0.12954131523 -0.061946525106 -0.050296642255 -0.036391112494 
8.7304082862e-05 0.05658216547 0.0490846904 -0.00010155981897 0.4026845298 0.00010091191765 0 0.4099646538 0 
-0.19555073313 0.025642988905 -0.073980851181 0.0017389604782 0.39882328398 -0.0017389604782 0.084560273476 0.0049494460269 0.023097140815 
-0.013011560337 0.21057775716 -0.067361238852 -0.041178332009 0.14957725344 0.14796284926 -0.018713004647 0.38875185117 7.8913229596e-15 
-0.15104217532 0.21350433729 -0.08847513098 -0.10514529648 0.01736526256 0.032910920883 -0.023683525094 0.038479039595 0.077669425022 
0 0.39875905054 0 -0.004507024569 0.40045571211 -0.019038581245 -1.4485258125e-05 0.39873630553 -3.634419112e-05 
-0.1093329276 0.013073293453 -0.054392005946 -0.051741169069 0.04058371722 -0.053836692909 0.0048568421874 0.08945452959 -0.10391745121 
0.0073616794846 0.22860097262 0.0056379145434 0.041512847424 0.39945512185 -0.037676638314 0.12737850624 0.034248587914 0.14055173702 
-0.30322048806 -0.00067532323441 -0.23970168846 -0.0006249839803 0.39654364795 -0.0035443033661 -0.0039167831326 0.051254836739 -0.001557137884 
0.21273066105 0.083784470045 0.0040210919325 0 0.39374558319 -0.0047274651976 0.021593665187 0.0095357454859 0.083271952659 
0.016865480206 0.009155321853 -0.074806218358 0.011388376557 0.041364487349 -0.11565082641 0.0720265258 0.092481050782 0.10567728676 
-0.035862658324 0.090291244517 0.064308977049 0.088817694295 0.1124998154 -0.053149249242 0.1287683514 0.19121853907 0.11076579337 
0.095677381331 0.0044200649861 -0.086041273012 -0.10659233928 0.13529730026 -0.13355815864 0.13721431181 0.10181133851 -0.021435361436 
-0.082935369571 0.12454513688 0.22031739751 0.048239276178 0.099225294711 0.24497616456 0 0.39904491296 0 
0 0.40508628054 1.1391752074e-05 0.068650783752 0.018026213225 0.060475464125 -0.019593090008 0.057115403233 0.099738465183 
0.1362875538 0.039257522085 -0.0091534098264 -0.016476201133 0.099454444818 -0.084306564822 -0.011140416409 0.097767829241 -0.12921837017 
-0.081077584478 0.27179021998 -0.19453844851 0.029577089408 0.051621073356 0.036709279218 0.13889610943 -0.022972110717 0.059703086428 
0.10344903995 0.054815171856 -0.0038259629395 0.028538407798 0.025056636625 -0.064268107381 0.086954209449 0.2526704874 -0.16366621469 
0 0.38773520475 0 -0.040935584861 0.0080659946873 -0.037605969439 0.031590655792 0.043572963739 -0.02529784089 
0.0094198569489 0.15103026516 -0.022541178981 -0.0030995011966 0.4005287818 -0.0015598553611 -0.0027343479842 0.020591615742 0.016982238916 
-0.02456028625 0.011359228832 -0.0113720337 0.027032685635 0.021794619309 -0.024559164227 -0.05241557277 -7.6474465414e-05 -0.038101718797 
-0.079995245439 -0.017084149868 -0.024509996072 -0.033229108723 0.13146619811 -0.072439225811 -0.01422641714 0.39996235906 -0.038093788696 
-0.014643806203 0.4003396869 0.017645573926 -0.0021145546064 0.038207161077 0.086087109658 0.047105971364 0.047126373854 0.013261584049 
-0.04239299415 0.032731008683 -0.025360640441 -0.0061600299512 0.11429591419 0.13432692073 0.0050133738183 0.03415893043 0.0051985059679 
-0.047772226234 0.0132061549 0.03151757883 0.080529813377 0.0057628936695 0.0071294393731 -0.0094375276358 0.047072839183 -0.0043676764478 
0.077184004256 0.066064098953 0.077633274331 -0.0039913111495 0.045910097796 0.029473773607 0.017297158063 0.051523199259 0.034196204277 
0.058087612515 0.020893658911 0.057573748421 -0.093883439559 0.14252171153 0.082969879669 -0.029513261594 0.16173266479 0.02841832475 
0.058714015235 0.0017270508604 -0.0052240249124 0.073524872124 -0.0089080269211 0.085640873075 -0.021958819501 0.054191597684 0.048298013441 
0.015342748692 0.015639683378 -0.032806018651 0.14414420127 0.070733586407 0.116579113 -0.0021049833578 0.38899466784 -0.000126565171 
0.045861773211 0.010416166083 0.066043061475 -0.029110559063 0.018207847277 -0.076876075613 -0.046054797591 0.035397971386 0.092164701031 