# vtk DataFile Version 5.1
Generated by LIGGGHTS
ASCII
DATASET POLYDATA
POINTS 1163 float
-0.136603 0.0559807 -0.143744 -0.139765 0.0694815 -0.143302 -0.0923493 0.0853101 -0.143376 
-0.143412 0.0608844 -0.135777 -0.119115 0.0587488 -0.136854 -0.0789254 0.0604295 -0.134796 
-0.00119493 0.0641852 -0.135769 -0.0160113 0.0762439 -0.141106 -0.0081024 0.10684 -0.137955 
-0.102943 0.123948 -0.141636 -0.0719459 0.129673 -0.141417 -0.143737 0.138551 -0.141971 
-0.0761601 0.200094 -0.137715 -0.132314 0.0729114 -0.133336 -0.0407283 0.0755985 -0.127958 
-0.0894094 0.092256 -0.132298 -0.0165828 0.0971593 -0.128001 -0.0230989 0.126893 -0.129359 
-0.143195 0.0652397 -0.125677 -0.129637 0.137084 -0.127014 -0.138631 0.0587065 -0.113017 
-0.127963 0.058384 -0.114044 -0.117851 0.0569558 -0.118188 -0.0929161 0.0609019 -0.112205 
-0.138201 0.0696004 -0.115254 -0.14332 0.0912135 -0.114831 -0.0344069 0.0899401 -0.116918 
-0.0722287 0.112111 -0.118436 -0.036566 0.0796003 -0.111455 -0.127117 0.0917987 -0.110625 
-0.0826367 0.127064 -0.110294 -0.0259929 0.0609393 -0.100638 -0.135802 0.0688453 -0.0988707 
-0.0591803 0.081487 -0.104383 -0.0223952 0.103842 -0.102476 -0.0577176 0.13194 -0.099398 
-0.0478972 0.0681409 -0.0930784 -0.0748996 0.121117 -0.0965785 -0.116143 0.165913 -0.0949905 
-0.0700358 0.148957 -0.0865545 -0.126563 0.0613318 -0.0755401 -0.0450793 0.0558683 -0.0810596 
-0.0422027 0.0790582 -0.0781509 -0.00497672 0.0783157 -0.0762195 -0.0400059 0.124485 -0.0783554 
-0.00277626 0.0550103 -0.0686924 -0.116965 0.0759725 -0.071998 -0.112783 0.0860129 -0.0685406 
-0.042662 0.0981708 -0.0699675 -0.0590559 0.0606146 -0.0601579 -0.123503 0.186637 -0.062979 
-0.112248 0.186511 -0.0604765 -0.0236153 0.0565722 -0.0600512 -0.0260596 0.0772031 -0.0541865 
-0.137117 0.109702 -0.0602695 -0.0113161 0.122081 -0.0548879 -0.0258799 0.131781 -0.05921 
-0.0712515 0.0596734 -0.0478436 -0.120095 0.0732274 -0.0496622 -0.0088764 0.0777886 -0.0458405 
-0.0950405 0.112213 -0.049328 -0.0445399 0.0866508 -0.036958 -0.00893462 0.0988536 -0.0441176 
-0.0118441 0.11044 -0.0392986 -0.0502095 0.138787 -0.0383017 -0.136646 0.109095 -0.0331655 
-0.107905 0.0591397 -0.0228799 -0.0110749 0.067321 -0.0292406 -0.00529621 0.0856033 -0.0247784 
-0.00681274 0.110069 -0.0275464 -0.0244191 0.125152 -0.025554 -0.0668827 0.186512 -0.0278048 
-0.119803 0.0550666 -0.0154767 -0.0650951 0.0764161 -0.0194902 -0.0187411 0.0842292 -0.0212685 
-0.132911 0.141089 -0.0159517 -0.12895 0.0598378 -0.0128469 -0.040117 0.063142 -0.00794307 
-0.132007 0.0757855 -0.0100476 -0.0479625 0.0709628 -0.00877456 -0.0838961 0.0957348 -0.0126825 
-0.0867815 0.0605817 -0.00408031 -0.0160556 0.0578437 -0.00486871 -0.00339563 0.0575213 -0.00617778 
-0.122741 0.0643735 -0.00488556 -0.107497 0.0796876 -0.00441731 -0.00790468 0.136077 -0.00768827 
-0.0801662 0.200007 -0.141595 -0.0801087 0.200064 -0.137647 -0.0762176 0.200038 -0.141663 
-0.137982 0.0603796 0.000531106 -0.0094264 0.0891035 0.00328733 -0.0310308 0.0557742 0.0126271 
-0.121452 0.0733147 0.0119705 -0.132942 0.0669085 0.0190645 -0.111269 0.0621565 0.0160574 
-0.0224689 0.0636 0.0180603 -0.144981 0.0697779 0.0167537 -0.0876222 0.0828617 0.0202192 
-0.0179954 0.0779863 0.0154439 -0.131065 0.0861223 0.0208791 -0.114496 0.0556556 0.0233005 
-0.120098 0.080651 0.0302524 -0.107366 0.0875406 0.0254067 -0.0825833 0.130546 0.0249049 
-0.100346 0.143476 0.0254185 -0.0272484 0.078403 0.0357653 -0.113475 0.136727 0.0334274 
-0.0904267 0.0823744 0.0402639 -0.0158149 0.0789327 0.0398161 -0.0411242 0.092483 0.0428516 
-0.124013 0.102233 0.0442973 -0.0732674 0.124734 0.0397099 -0.13889 0.137152 0.0431215 
-0.138207 0.179868 0.0433583 -0.0363769 0.0600944 0.0489299 -0.139581 0.076957 0.045933 
-0.0767281 0.0703191 0.0507314 -0.0563447 0.0718915 0.0470622 -0.112554 0.0723586 0.0565347 
-0.0408556 0.0589662 0.0650546 -0.137566 0.0615418 0.0659933 -0.0454981 0.153428 0.0666673 
-0.00599776 0.0896772 0.0695484 -0.0761971 0.159787 0.0731713 -0.0834877 0.0582915 0.0775235 
-0.0103946 0.0597224 0.080953 -0.0347315 0.0653973 0.0826964 -0.139232 0.0738502 0.0769078 
-0.126756 0.122481 0.0765635 -0.120596 0.0643894 0.0837161 -0.0298719 0.0805993 0.0897139 
-0.0137168 0.10971 0.0870049 -0.125184 0.0694111 0.093204 -0.112278 0.0956606 0.0958097 
-0.0485207 0.0715473 0.102928 -0.126761 0.112514 0.104321 -0.0304916 0.141563 0.0996334 
-0.0510494 0.166851 0.101418 -0.0113671 0.0852161 0.112058 -0.0663905 0.167887 0.118376 
-0.0111239 0.055194 0.120524 -0.0961346 0.153907 0.127577 -0.105394 0.0715819 0.141775 
-0.105742 0.100954 0.137789 -0.0987654 0.114435 0.139295 -0.116577 0.0595484 0.14248 
-0.0404462 0.198662 0.14401 -0.045633 0.20813 -0.144623 -0.0520353 0.208128 -0.144623 
-0.0456369 0.222627 -0.144763 -0.0520392 0.222625 -0.144763 -0.052035 0.208199 -0.138221 
-0.0456326 0.208201 -0.138221 -0.0456365 0.222698 -0.138361 -0.0520389 0.222696 -0.138361 
-0.134072 0.251501 -0.138303 -0.1206 0.251501 -0.138303 -0.134072 0.294967 -0.138303 
-0.1206 0.294967 -0.138303 -0.121423 0.33035 -0.131064 -0.09937 0.330374 -0.131064 
-0.120495 0.393072 -0.128734 -0.0997451 0.393034 -0.128704 -0.134072 0.251501 -0.124831 
-0.1206 0.251501 -0.124831 -0.134072 0.294967 -0.124831 -0.1206 0.294967 -0.124831 
-0.0904378 0.217752 -0.113299 -0.0801582 0.217799 -0.113299 -0.0905052 0.246672 -0.113238 
-0.0802255 0.246718 -0.113238 -0.0457257 0.263049 -0.111124 -0.0296592 0.263049 -0.111124 
-0.0457257 0.317213 -0.111124 -0.0296592 0.317213 -0.111124 -0.121423 0.33049 -0.109011 
-0.0993698 0.330514 -0.109011 -0.120443 0.393015 -0.107913 -0.0997594 0.392979 -0.10791 
-0.0260894 0.210868 -0.097082 -0.0260863 0.202791 -0.0971815 -0.0212087 0.21087 -0.0970888 
-0.0212056 0.202793 -0.0971883 -0.0904378 0.21771 -0.103019 -0.0801582 0.217757 -0.103019 
-0.0905051 0.24663 -0.102959 -0.0802255 0.246676 -0.102959 -0.0260804 0.210779 -0.0922014 
-0.0260773 0.202702 -0.0923009 -0.0211997 0.210782 -0.0922082 -0.0211965 0.202705 -0.0923077 
-0.0749524 0.241775 -0.0928955 -0.0630763 0.241775 -0.092889 -0.0937781 0.260238 -0.0964423 
-0.0787094 0.260238 -0.0964423 -0.0457257 0.263049 -0.0950573 -0.0296592 0.263049 -0.0950573 
-0.0749526 0.278657 -0.092894 -0.0651021 0.276675 -0.0922803 -0.0583558 0.277788 -0.0949681 
-0.0417207 0.275806 -0.0943607 -0.0937781 0.310287 -0.0964423 -0.0787094 0.310287 -0.0964423 
-0.0457257 0.317213 -0.0950573 -0.0296592 0.317213 -0.0950573 -0.0603813 0.340672 -0.0943734 
-0.0417207 0.340672 -0.0943734 -0.0570081 0.259877 -0.0844469 -0.0799188 0.271736 -0.0876912 
-0.072524 0.311539 -0.0846057 -0.0421051 0.208282 -0.0827439 -0.0352689 0.207922 -0.0822686 
-0.0417654 0.224599 -0.08241 -0.0349292 0.224238 -0.0819348 -0.0909202 0.242105 -0.0787941 
-0.0791385 0.242129 -0.0785952 -0.074665 0.24175 -0.0812184 -0.0630828 0.241774 -0.0810131 
-0.0937781 0.260238 -0.0813736 -0.0787094 0.260238 -0.0813736 -0.0675162 0.266764 -0.0777328 
-0.124471 0.273265 -0.079969 -0.106409 0.273271 -0.0801913 -0.0909202 0.27981 -0.0787941 
-0.0788447 0.27981 -0.0787941 -0.063083 0.278656 -0.0810116 -0.0417207 0.275819 -0.0756993 
-0.0529919 0.280687 -0.0798913 -0.0937781 0.310287 -0.0813736 -0.0787094 0.310287 -0.0813736 
-0.0644456 0.306704 -0.0804548 -0.124479 0.335659 -0.0799897 -0.106417 0.335664 -0.0802121 
-0.0603813 0.340677 -0.0757136 -0.0417207 0.340677 -0.0757136 -0.0425847 0.207931 -0.0759077 
-0.0357485 0.20757 -0.0754324 -0.042245 0.224247 -0.0755738 -0.0354088 0.223886 -0.0750986 
-0.072435 0.259981 -0.068938 -0.0569672 0.260014 -0.068979 -0.0255528 0.277282 -0.0748749 
-0.00729137 0.277149 -0.0747655 -0.072483 0.311675 -0.069138 -0.0570152 0.311708 -0.069179 
-0.0253573 0.340498 -0.0750196 -0.00709581 0.340365 -0.0749102 -0.0909202 0.242105 -0.0667186 
-0.0788447 0.242105 -0.0667186 -0.00358259 0.270449 -0.0627949 -0.124248 0.273279 -0.061907 
-0.106186 0.273285 -0.0621294 -0.0909202 0.27981 -0.0667186 -0.0788447 0.27981 -0.0667186 
-0.124256 0.335673 -0.0619279 -0.106195 0.335678 -0.0621502 -0.0212527 0.331191 -0.0629177 
-0.00358998 0.331197 -0.0628341 -0.0908171 0.263502 -0.0586174 -0.0743515 0.263502 -0.0586174 
-0.0194972 0.268762 -0.0594808 -0.0256624 0.277381 -0.0566134 -0.00914901 0.278931 -0.0599018 
-0.0625923 0.282041 -0.059144 -0.043333 0.282041 -0.059144 -0.0908171 0.319318 -0.0586295 
-0.0743515 0.319318 -0.0586295 -0.0254668 0.340596 -0.0567582 -0.00720533 0.340463 -0.0566487 
-0.0625923 0.349372 -0.059144 -0.043333 0.349372 -0.059144 -0.021329 0.27047 -0.0452157 
-0.00366605 0.270476 -0.0451322 -0.0213364 0.331219 -0.0452548 -0.00367342 0.331223 -0.0451713 
-0.110985 0.248262 -0.0393362 -0.0977122 0.248262 -0.0393362 -0.135516 0.263223 -0.0387266 
-0.119649 0.263223 -0.0387266 -0.0908171 0.263517 -0.0421512 -0.0743515 0.263517 -0.0421512 
-0.0625923 0.282041 -0.0398848 -0.043333 0.282041 -0.0398848 -0.110985 0.290904 -0.0393362 
-0.0977122 0.290904 -0.0393362 -0.135516 0.316561 -0.038726 -0.119649 0.316561 -0.038726 
-0.0908171 0.319321 -0.0421645 -0.0743515 0.319321 -0.0421645 -0.0625923 0.349372 -0.0398848 
-0.043333 0.349372 -0.0398848 -0.0198802 0.229235 -0.0316002 -0.110985 0.248262 -0.0260633 
-0.0977122 0.248262 -0.0260633 -0.0549707 0.241586 -0.0258986 -0.0426956 0.241586 -0.0258986 
-0.135516 0.263219 -0.0228596 -0.119649 0.263219 -0.0228596 -0.0191435 0.260533 -0.0307765 
-0.0549707 0.280114 -0.0258986 -0.0426956 0.280114 -0.0258986 -0.0251499 0.27371 -0.0269155 
-0.110985 0.290904 -0.0260633 -0.0977122 0.290904 -0.0260633 -0.135516 0.316564 -0.0228591 
-0.119649 0.316564 -0.0228591 -0.0199001 0.228205 -0.0207235 -0.0570745 0.246607 -0.021478 
-0.0438016 0.246737 -0.0214557 -0.0192095 0.259431 -0.0199001 -0.00887031 0.27344 -0.0207032 
-0.0571953 0.289298 -0.0214558 -0.0439225 0.289332 -0.0214781 -0.00893035 0.335833 -0.0207323 
-0.026588 0.335914 -0.0221577 -0.0138709 0.338405 -0.0161061 -0.0549707 0.241586 -0.0136235 
-0.0426956 0.241586 -0.0136235 -0.0549707 0.280114 -0.0136235 -0.0426956 0.280114 -0.0136235 
[...]
POINT_DATA 1163
FIELD FieldData 8
id 1 1163 int
3781 3801 3749 3894 3745 2648 3927 3730 3789 
3994 3744 3970 4871 2739 2901 3917 3952 3937 
3023 3359 3024 3738 2755 3931 3785 3823 3296 
3981 3852 3908 3180 3844 3586 3685 3773 3808 
3966 3932 3987 3830 3360 3960 3877 3943 3903 
3805 3716 3135 3242 3731 3951 3243 3961 3757 
3896 3809 3244 3918 3727 2962 3939 3814 3758 
2824 3873 3920 3853 3714 3995 2749 3879 3953 
3885 3938 3787 3815 3182 3975 3297 3786 2961 
3746 3919 3779 3971 3831 2484 4866 4867 4870 
3925 2482 3962 2902 3982 3720 3847 3688 3906 
3782 3825 3836 3803 3950 3686 3988 3940 2823 
3775 3587 3954 3955 3996 3909 3728 3747 3854 
3911 3788 3631 3406 3760 3765 3461 3761 3768 
3871 2550 3864 3910 3863 3968 3325 3721 3941 
3136 3776 2509 3997 3754 3963 3977 3632 3729 
3875 3956 3689 3874 4798 4794 4800 4796 4795 
4799 4793 4797 4442 4446 4444 4448 4018 4022 
4020 4024 4443 4447 4445 4441 4690 4694 4692 
4696 4226 4230 4228 4232 4019 4023 4021 4017 
4852 4850 4856 4854 4691 4695 4693 4689 4853 
4851 4849 4855 4602 4606 4330 4334 4227 4231 
4604 4608 4042 4046 4332 4336 4229 4225 4044 
4048 4286 4605 4284 4786 4790 4788 4792 4594 
4598 4603 4607 4331 4335 4282 4084 4088 4596 
4600 4601 4047 4043 4333 4329 4288 4086 4090 
4045 4041 4787 4791 4789 4785 4283 4287 4058 
4062 4285 4281 4060 4064 4595 4599 4142 4085 
4089 4597 4593 4087 4091 4140 4144 4194 4198 
4138 4059 4063 4026 4030 4196 4200 4061 4057 
4028 4032 4139 4143 4141 4137 4475 4479 4258 
4262 4195 4199 4027 4031 4477 4481 4260 4264 
4197 4193 4029 4025 4658 4476 4480 4578 4582 
4259 4263 4660 4580 4584 4092 4478 4482 4261 
4257 4659 4483 4487 4661 4096 4485 4474 4074 
4094 4095 4579 4583 4581 4577 4076 4093 4078 
4080 4075 4073 4865 4872 4868 4869 4077 4079 
4082 4083 4081 4484 4488 4362 4366 4486 4473 
4364 4368 4346 4350 4162 4166 4348 4352 4164 
4168 4674 4678 4363 4367 4676 4680 4365 4361 
4634 4638 4675 4679 4347 4351 4314 4636 4318 
4640 4677 4673 4349 4345 4316 4320 4354 4266 
4270 4163 4167 4034 4268 4356 4272 4165 4161 
4036 4040 4730 4734 4635 4639 4732 4736 4498 
4315 4637 4319 4633 4355 4146 4150 4038 4317 
4313 4148 4152 4002 4006 4004 4008 4731 4735 
4733 4729 4267 4271 4154 4158 4115 4119 4500 
4035 4269 4357 4265 4156 4160 4117 4121 4068 
4072 4770 4774 4772 4776 4499 4210 4214 4147 
4127 4151 4066 4070 4039 4212 4216 4149 4114 
4145 4037 4033 4005 4001 4771 4775 4773 4769 
4530 4534 4387 4391 4234 4238 4159 4116 4120 
4123 4067 4071 4536 4389 4393 4501 4236 4240 
4118 4122 4125 4069 4065 4003 4007 4211 4215 
4155 4124 4532 4128 4213 4209 4157 4153 4450 
4454 4586 4590 4531 4535 4418 4422 4388 4392 
4235 4290 4239 4294 4178 4182 4452 4456 4588 
4592 4533 4529 4394 4420 4424 4237 4292 4233 
4296 4180 4184 4126 4113 4587 4591 4419 4423 
4589 4585 4390 4421 4417 4451 4455 4555 4559 
4395 4399 4291 4295 4338 4342 4179 4183 4453 
4449 4557 4561 4397 4386 4340 4344 4293 4289 
4181 4177 4611 4615 4506 4510 4556 4560 4613 
4396 4558 4562 4508 4512 4722 4726 4738 4742 
4740 4744 4724 4728 4400 4617 4339 4343 4398 
4385 4341 4337 4619 4623 4621 4723 4727 4739 
4743 4612 4616 4507 4511 4741 4737 4725 4610 
4721 4614 4618 4050 4509 4505 4052 4828 4826 
4832 4830 4810 4814 4624 4812 4816 4567 4563 
4609 4565 4554 4620 4829 4827 4825 4831 4811 
4815 4813 4809 4622 4564 4568 4566 4553 4051 
4055 4053 3899 3849 3161 3811 3440 3905 3818 
3876 3972 3838 3934 3945 3762 3860 3784 3900 
3726 3405 3755 3985 3858 3957 3025 3717 3964 
3978 2591 3778 3741 2927 2989 3856 3922 2481 
3796 3867 3711 2867 3888 3441 3806 3869 3737 
3723 3819 2483 3712 3766 3850 3881 3797 3665 
3324 3851 3812 3208 3162 3614 3691 3891 2748 
3770 3840 2751 3262 3889 3890 3771 3914 3991 
3777 3946 2750 2690 3791 3442 3732 3870 3774 
3385 3764 3263 3999 3668 3742 3799 3820 3718 
3763 3828 3913 3692 2790 3901 3923 2963 3993 
3916 3979 3998 3974 3613 3667 3924 3750 3810 
2928 3739 3790 3947 3719 3772 3835 3715 3892 
3857 3751 3846 3298 3861 3443 3935 3833 3733 
3958 3926 3983 3800 3798 2753 3872 3843 3936 
3326 2868 3725 3967 3792 3902 3883 3930 3444 
3693 3980 3969 3848 3915 4714 4718 4716 4720 
4715 4719 4717 4713 4626 4630 4515 4519 4628 
4632 4517 4521 4834 4835 4839 4838 4833 4840 
4836 4837 4627 4631 4629 4625 4516 4520 4402 
4406 4518 4522 4404 4408 4523 4527 4403 4407 
4525 4514 4405 4401 4698 4702 4700 4704 4699 
4703 4524 4528 4701 4697 4526 4513 4754 4758 
4756 4760 4426 4430 4428 4432 4755 4759 4757 
4753 4490 4494 4427 4431 4370 4374 4298 4302 
4492 4496 4429 4425 4372 4376 4300 4304 4762 
4766 4764 4768 4682 4546 4550 4491 4458 4462 
4495 4684 4371 4375 4202 4206 4688 4299 4303 
4548 4552 4493 4464 4489 4460 4373 4369 4204 
4208 4301 4297 4763 4767 4761 4686 4765 4662 
4683 4687 4666 4670 4547 4551 4459 4463 4668 
4672 4203 4685 4207 4681 4549 4545 4461 4457 
4205 4201 4864 4857 4861 4860 4863 4862 4859 
4858 4664 4663 4642 4646 4667 4671 4657 4669 
4665 4648 4644 4647 4643 4641 4645 4802 4807 
4806 4803 4801 4808 4804 4805 4650 4654 4652 
4656 4651 4655 4306 4310 4653 4649 4308 4312 
4010 4014 4012 4016 4746 4750 4748 4752 4747 
4751 4706 4710 4749 4745 4378 4382 4358 4540 
4708 4712 4307 4311 4384 4380 4360 4309 4305 
4502 4186 4190 4188 4192 4011 4015 4013 4009 
4538 4542 4707 4711 4379 4383 4322 4326 4709 
4705 4243 4247 4359 4544 4504 4103 4381 4377 
4353 4185 4324 4328 4245 4249 4101 4105 4539 
4543 4503 4187 4191 4541 4537 4099 4189 4327 
4244 4248 4323 4497 4321 4325 4246 4250 4410 
4414 4100 4104 4412 4416 4102 4106 4434 4438 
4411 4415 4436 4440 4413 4409 4435 4439 4255 
4130 4134 4433 4437 4253 4242 4132 4136 4822 
4818 4824 4820 4782 4218 4222 4251 4170 4174 
4220 4224 4172 4176 4823 4819 4783 4817 4821 
4778 4780 4784 4777 4252 4256 4131 4135 4254 
4241 4133 4129 4779 4781 4570 4574 4466 4470 
4219 4223 4054 4107 4111 4572 4576 4276 4468 
4472 4221 4217 4056 4109 4098 4844 4845 4842 
4841 4848 4846 4274 4278 4467 4471 4171 4175 
4469 4465 4280 4173 4169 4571 4575 4275 4279 
4108 4112 4573 4569 4277 4273 4110 4097 4049 
4843 4847 
type 1 1163 int
2 2 2 2 2 2 2 2 2 
2 2 2 2 2 2 2 2 2 
2 2 2 2 2 2 2 2 2 
2 2 2 2 2 2 2 2 2 
2 2 2 2 2 2 2 2 2 
2 2 2 2 2 2 2 2 2 
2 2 2 2 2 2 2 2 2 
2 2 2 2 2 2 2 2 2 
2 2 2 2 2 2 2 2 2 
2 2 2 2 2 2 2 2 2 
2 2 2 2 2 2 2 2 2 
2 2 2 2 2 2 2 2 2 
2 2 2 2 2 2 2 2 2 
2 2 2 2 2 2 2 2 2 
2 2 2 2 2 2 2 2 2 
2 2 2 2 2 2 2 2 2 
2 2 2 2 2 2 2 2 2 
2 2 2 2 2 2 2 2 2 
2 2 2 2 2 2 2 2 2 
2 2 2 2 2 2 2 2 2 
2 2 2 2 2 2 2 2 2 
2 2 2 2 2 2 2 2 2 
2 2 2 2 2 2 2 2 2 
2 2 2 2 2 2 2 2 2 
2 2 2 2 2 2 2 2 2 
2 2 2 2 2 2 2 2 2 
2 2 2 2 2 2 2 2 2 
2 2 2 2 2 2 2 2 2 
2 2 2 2 2 2 2 2 2 
2 2 2 2 2 2 2 2 2 
2 2 2 2 2 2 2 2 2 
2 2 2 2 2 2 2 2 2 
2 2 2 2 2 2 2 2 2 
2 2 2 2 2 2 2 2 2 
2 2 2 2 2 2 2 2 2 
2 2 2 2 2 2 2 2 2 
2 2 2 2 2 2 2 2 2 
2 2 2 2 2 2 2 2 2 
2 2 2 2 2 2 2 2 2 
2 2 2 2 2 2 2 2 2 
2 2 2 2 2 2 2 2 2 
2 2 2 2 2 2 2 2 2 
2 2 2 2 2 2 2 2 2 
2 2 2 2 2 2 2 2 2 
2 2 2 2 2 2 2 2 2 
2 2 2 2 2 2 2 2 2 
2 2 2 2 2 2 2 2 2 
2 2 2 2 2 2 2 2 2 
2 2 2 2 2 2 2 2 2 
2 2 2 2 2 2 2 2 2 
2 2 2 2 2 2 2 2 2 
2 2 2 2 2 2 2 2 2 
2 2 2 2 2 2 2 2 2 
2 2 2 2 2 2 2 2 2 
2 2 2 2 2 2 2 2 2 
2 2 2 2 2 2 2 2 2 
2 2 2 2 2 2 2 2 2 
2 2 2 2 2 2 2 2 2 
2 2 2 2 2 2 2 2 2 
2 2 2 2 2 2 2 2 2 
2 2 2 2 2 2 2 2 2 
2 2 2 2 2 2 2 2 2 
2 2 2 2 2 2 2 2 2 
2 2 2 2 2 2 2 2 2 
2 2 2 2 2 2 2 2 2 
2 2 2 2 2 2 2 2 2 
2 2 2 2 2 2 2 2 2 
2 2 2 2 2 2 2 2 2 
2 2 2 2 2 2 2 2 2 
2 2 2 2 2 2 2 2 2 
2 2 2 2 2 2 2 2 2 
2 2 2 2 2 2 2 2 2 
2 2 2 2 2 2 2 2 2 
2 2 2 2 2 2 2 2 2 
2 2 2 2 2 2 2 2 2 
2 2 2 2 2 2 2 2 2 
2 2 2 2 2 2 2 2 2 
2 2 2 2 2 2 2 2 2 
2 2 2 2 2 2 2 2 2 
2 2 2 2 2 2 2 2 2 
2 2 2 2 2 2 2 2 2 
2 2 2 2 2 2 2 2 2 
2 2 2 2 2 2 2 2 2 
2 2 2 2 2 2 2 2 2 
2 2 2 2 2 2 2 2 2 
2 2 2 2 2 2 2 2 2 
2 2 2 2 2 2 2 2 2 
2 2 2 2 2 2 2 2 2 
2 2 2 2 2 2 2 2 2 
2 2 2 2 2 2 2 2 2 
2 2 2 2 2 2 2 2 2 
2 2 2 2 2 2 2 2 2 
2 2 2 2 2 2 2 2 2 
2 2 2 2 2 2 2 2 2 
2 2 2 2 2 2 2 2 2 
2 2 2 2 2 2 2 2 2 
2 2 2 2 2 2 2 2 2 
2 2 2 2 2 2 2 2 2 
2 2 2 2 2 2 2 2 2 
2 2 2 2 2 2 2 2 2 
2 2 2 2 2 2 2 2 2 
2 2 2 2 2 2 2 2 2 
2 2 2 2 2 2 2 2 2 
2 2 2 2 2 2 2 2 2 
2 2 2 2 2 2 2 2 2 
2 2 2 2 2 2 2 2 2 
2 2 2 2 2 2 2 2 2 
2 2 2 2 2 2 2 2 2 
2 2 2 2 2 2 2 2 2 
2 2 2 2 2 2 2 2 2 
2 2 2 2 2 2 2 2 2 
2 2 2 2 2 2 2 2 2 
2 2 2 2 2 2 2 2 2 
2 2 2 2 2 2 2 2 2 
2 2 2 2 2 2 2 2 2 
2 2 2 2 2 2 2 2 2 
2 2 2 2 2 2 2 2 2 
2 2 2 2 2 2 2 2 2 
2 2 2 2 2 2 2 2 2 
2 2 2 2 2 2 2 2 2 
2 2 2 2 2 2 2 2 2 
2 2 2 2 2 2 2 2 2 
2 2 2 2 2 2 2 2 2 
2 2 2 2 2 2 2 2 2 
2 2 2 2 2 2 2 2 2 
2 2 2 2 2 2 2 2 2 
2 2 2 2 2 2 2 2 2 
2 2 2 2 2 2 2 2 2 
2 2 2 2 2 2 2 2 2 
2 2 
i 3 1163 int
0 0 0 0 0 0 0 0 0 
0 0 0 0 0 0 0 0 0 
0 0 0 0 0 0 0 0 0 
0 0 0 0 0 0 0 0 0 
0 0 0 0 0 0 0 0 0 
0 0 0 0 0 0 0 0 0 
0 0 0 0 0 0 0 0 0 
0 0 0 0 0 0 0 0 0 
0 0 0 0 0 0 0 0 0 
0 0 0 0 0 0 0 0 0 
0 0 0 0 0 0 0 0 0 
0 0 0 0 0 0 0 0 0 
0 0 0 0 0 0 0 0 0 
0 0 0 0 0 0 0 0 0 
0 0 0 0 0 0 0 0 0 
0 0 0 0 0 0 0 0 0 
0 0 0 0 0 0 0 0 0 
0 0 0 0 0 0 0 0 0 
0 0 0 0 0 0 0 0 0 
0 0 0 0 0 0 0 0 0 
0 0 0 0 0 0 0 0 0 
0 0 0 0 0 0 0 0 0 
0 0 0 0 0 0 0 0 0 
0 0 0 0 0 0 0 0 0 
0 0 0 0 0 0 0 0 0 
0 0 0 0 0 0 0 0 0 
0 0 0 0 0 0 0 0 0 
0 0 0 0 0 0 0 0 0 
0 0 0 0 0 0 0 0 0 
0 0 0 0 0 0 0 0 0 
0 0 0 0 0 0 0 0 0 
0 0 0 0 0 0 0 0 0 
0 0 0 0 0 0 0 0 0 
0 0 0 0 0 0 0 0 0 
0 0 0 0 0 0 0 0 0 
0 0 0 0 0 0 0 0 0 
0 0 0 0 0 0 0 0 0 
0 0 0 0 0 0 0 0 0 
0 0 0 0 0 0 0 0 0 
0 0 0 0 0 0 0 0 0 
0 0 0 0 0 0 0 0 0 
0 0 0 0 0 0 0 0 0 
0 0 0 0 0 0 0 0 0 
0 0 0 0 0 0 0 0 0 
0 0 0 0 0 0 0 0 0 
0 0 0 0 0 0 0 0 0 
0 0 0 0 0 0 0 0 0 
0 0 0 0 0 0 0 0 0 
0 0 0 0 0 0 0 0 0 
0 0 0 0 0 0 0 0 0 
0 0 0 0 0 0 0 0 0 
0 0 0 0 0 0 0 0 0 
0 0 0 0 0 0 0 0 0 
0 0 0 0 0 0 0 0 0 
0 0 0 0 0 0 0 0 0 
0 0 0 0 0 0 0 0 0 
0 0 0 0 0 0 0 0 0 
0 0 0 0 0 0 0 0 0 
0 0 0 0 0 0 0 0 0 
0 0 0 0 0 0 0 0 0 
0 0 0 0 0 0 0 0 0 
0 0 0 0 0 0 0 0 0 
0 0 0 0 0 0 0 0 0 
0 0 0 0 0 0 0 0 0 
0 0 0 0 0 0 0 0 0 
0 0 0 0 0 0 0 0 0 
0 0 0 0 0 0 0 0 0 
0 0 0 0 0 0 0 0 0 
0 0 0 0 0 0 0 0 0 
0 0 0 0 0 0 0 0 0 
0 0 0 0 0 0 0 0 0 
0 0 0 0 0 0 0 0 0 
0 0 0 0 0 0 0 0 0 
0 0 0 0 0 0 0 0 0 
0 0 0 0 0 0 0 0 0 
0 0 0 0 0 0 0 0 0 
0 0 0 0 0 0 0 0 0 
0 0 0 0 0 0 0 0 0 
0 0 0 0 0 0 0 0 0 
0 0 0 0 0 0 0 0 0 
0 0 0 0 0 0 0 0 0 
0 0 0 0 0 0 0 0 0 
0 0 0 0 0 0 0 0 0 
0 0 0 0 0 0 0 0 0 
0 0 0 0 0 0 0 0 0 
0 0 0 0 0 0 0 0 0 
0 0 0 0 0 0 0 0 0 
0 0 0 0 0 0 0 0 0 
0 0 0 0 0 0 0 0 0 
0 0 0 0 0 0 0 0 0 
0 0 0 0 0 0 0 0 0 
0 0 0 0 0 0 0 0 0 
0 0 0 0 0 0 0 0 0 
0 0 0 0 0 0 0 0 0 
0 0 0 0 0 0 0 0 0 
0 0 0 0 0 0 0 0 0 
0 0 0 0 0 0 0 0 0 
0 0 0 0 0 0 0 0 0 
0 0 0 0 0 0 0 0 0 
0 0 0 0 0 0 0 0 0 
0 0 0 0 0 0 0 0 0 
0 0 0 0 0 0 0 0 0 
0 0 0 0 0 0 0 0 0 
0 0 0 0 0 0 0 0 0 
0 0 0 0 0 0 0 0 0 
0 0 0 0 0 0 0 0 0 
0 0 0 0 0 0 0 0 0 
0 0 0 0 0 0 0 0 0 
0 0 0 0 0 0 0 0 0 
0 0 0 0 0 0 0 0 0 
0 0 0 0 0 0 0 0 0 
0 0 0 0 0 0 0 0 0 
0 0 0 0 0 0 0 0 0 
0 0 0 0 0 0 0 0 0 
0 0 0 0 0 0 0 0 0 
0 0 0 0 0 0 0 0 0 
0 0 0 0 0 0 0 0 0 
0 0 0 0 0 0 0 0 0 
0 0 0 0 0 0 0 0 0 
0 0 0 0 0 0 0 0 0 
0 0 0 0 0 0 0 0 0 
0 0 0 0 0 0 0 0 0 
0 0 0 0 0 0 0 0 0 
0 0 0 0 0 0 0 0 0 
0 0 0 0 0 0 0 0 0 
0 0 0 0 0 0 0 0 0 
0 0 0 0 0 0 0 0 0 
0 0 0 0 0 0 0 0 0 
0 0 0 0 0 0 0 0 0 
0 0 0 0 0 0 0 0 0 
0 0 0 0 0 0 0 0 0 
0 0 0 0 0 0 0 0 0 
0 0 0 0 0 0 0 0 0 
0 0 0 0 0 0 0 0 0 
0 0 0 0 0 0 0 0 0 
0 0 0 0 0 0 0 0 0 
0 0 0 0 0 0 0 0 0 
0 0 0 0 0 0 0 0 0 
0 0 0 0 0 0 0 0 0 
0 0 0 0 0 0 0 0 0 
0 0 0 0 0 0 0 0 0 
0 0 0 0 0 0 0 0 0 
0 0 0 0 0 0 0 0 0 
0 0 0 0 0 0 0 0 0 
0 0 0 0 0 0 0 0 0 
0 0 0 0 0 0 0 0 0 
0 0 0 0 0 0 0 0 0 
0 0 0 0 0 0 0 0 0 
0 0 0 0 0 0 0 0 0 
0 0 0 0 0 0 0 0 0 
0 0 0 0 0 0 0 0 0 
0 0 0 0 0 0 0 0 0 
0 0 0 0 0 0 0 0 0 
0 0 0 0 0 0 0 0 0 
0 0 0 0 0 0 0 0 0 
0 0 0 0 0 0 0 0 0 
0 0 0 0 0 0 0 0 0 
0 0 0 0 0 0 0 0 0 
0 0 0 0 0 0 0 0 0 
0 0 0 0 0 0 0 0 0 
0 0 0 0 0 0 0 0 0 
0 0 0 0 0 0 0 0 0 
0 0 0 0 0 0 0 0 0 
0 0 0 0 0 0 0 0 0 
0 0 0 0 0 0 0 0 0 
0 0 0 0 0 0 0 0 0 
0 0 0 0 0 0 0 0 0 
0 0 0 0 0 0 0 0 0 
0 0 0 0 0 0 0 0 0 
0 0 0 0 0 0 0 0 0 
0 0 0 0 0 0 0 0 0 
0 0 0 0 0 0 0 0 0 
0 0 0 0 0 0 0 0 0 
0 0 0 0 0 0 0 0 0 
0 0 0 0 0 0 0 0 0 
0 0 0 0 0 0 0 0 0 
0 0 0 0 0 0 0 0 0 
0 0 0 0 0 0 0 0 0 
0 0 0 0 0 0 0 0 0 
0 0 0 0 0 0 0 0 0 
0 0 0 0 0 0 0 0 0 
0 0 0 0 0 0 0 0 0 
0 0 0 0 0 0 0 0 0 
0 0 0 0 0 0 0 0 0 
0 0 0 0 0 0 0 0 0 
0 0 0 0 0 0 0 0 0 
0 0 0 0 0 0 0 0 0 
0 0 0 0 0 0 0 0 0 
0 0 0 0 0 0 0 0 0 
0 0 0 0 0 0 0 0 0 
0 0 0 0 0 0 0 0 0 
0 0 0 0 0 0 0 0 0 
0 0 0 0 0 0 0 0 0 
0 0 0 0 0 0 0 0 0 
0 0 0 0 0 0 0 0 0 
0 0 0 0 0 0 0 0 0 
0 0 0 0 0 0 0 0 0 
0 0 0 0 0 0 0 0 0 
0 0 0 0 0 0 0 0 0 
0 0 0 0 0 0 0 0 0 
0 0 0 0 0 0 0 0 0 
0 0 0 0 0 0 0 0 0 
0 0 0 0 0 0 0 0 0 
0 0 0 0 0 0 0 0 0 
0 0 0 0 0 0 0 0 0 
0 0 0 0 0 0 0 0 0 
0 0 0 0 0 0 0 0 0 
0 0 0 0 0 0 0 0 0 
0 0 0 0 0 0 0 0 0 
0 0 0 0 0 0 0 0 0 
0 0 0 0 0 0 0 0 0 
0 0 0 0 0 0 0 0 0 
0 0 0 0 0 0 0 0 0 
0 0 0 0 0 0 0 0 0 
0 0 0 0 0 0 0 0 0 
0 0 0 0 0 0 0 0 0 
0 0 0 0 0 0 0 0 0 
0 0 0 0 0 0 0 0 0 
0 0 0 0 0 0 0 0 0 
0 0 0 0 0 0 0 0 0 
0 0 0 0 0 0 0 0 0 
0 0 0 0 0 0 0 0 0 
0 0 0 0 0 0 0 0 0 
0 0 0 0 0 0 0 0 0 
0 0 0 0 0 0 0 0 0 
0 0 0 0 0 0 0 0 0 
0 0 0 0 0 0 0 0 0 
0 0 0 0 0 0 0 0 0 
0 0 0 0 0 0 0 0 0 
0 0 0 0 0 0 0 0 0 
0 0 0 0 0 0 0 0 0 
0 0 0 0 0 0 0 0 0 
0 0 0 0 0 0 0 0 0 
0 0 0 0 0 0 0 0 0 
0 0 0 0 0 0 0 0 0 
0 0 0 0 0 0 0 0 0 
0 0 0 0 0 0 0 0 0 
0 0 0 0 0 0 0 0 0 
0 0 0 0 0 0 0 0 0 
0 0 0 0 0 0 0 0 0 
0 0 0 0 0 0 0 0 0 
0 0 0 0 0 0 0 0 0 
0 0 0 0 0 0 0 0 0 
0 0 0 0 0 0 0 0 0 
0 0 0 0 0 0 0 0 0 
0 0 0 0 0 0 0 0 0 
0 0 0 0 0 0 0 0 0 
0 0 0 0 0 0 0 0 0 
0 0 0 0 0 0 0 0 0 
0 0 0 0 0 0 0 0 0 
0 0 0 0 0 0 0 0 0 
0 0 0 0 0 0 0 0 0 
0 0 0 0 0 0 0 0 0 
0 0 0 0 0 0 0 0 0 
0 0 0 0 0 0 0 0 0 
0 0 0 0 0 0 0 0 0 
0 0 0 0 0 0 0 0 0 
0 0 0 0 0 0 0 0 0 
0 0 0 0 0 0 0 0 0 
0 0 0 0 0 0 0 0 0 
0 0 0 0 0 0 0 0 0 
0 0 0 0 0 0 0 0 0 
0 0 0 0 0 0 0 0 0 
0 0 0 0 0 0 0 0 0 
0 0 0 0 0 0 0 0 0 
0 0 0 0 0 0 0 0 0 
0 0 0 0 0 0 0 0 0 
0 0 0 0 0 0 0 0 0 
0 0 0 0 0 0 0 0 0 
0 0 0 0 0 0 0 0 0 
0 0 0 0 0 0 0 0 0 
0 0 0 0 0 0 0 0 0 
0 0 0 0 0 0 0 0 0 
0 0 0 0 0 0 0 0 0 
0 0 0 0 0 0 0 0 0 
0 0 0 0 0 0 0 0 0 
0 0 0 0 0 0 0 0 0 
0 0 0 0 0 0 0 0 0 
0 0 0 0 0 0 0 0 0 
0 0 0 0 0 0 0 0 0 
0 0 0 0 0 0 0 0 0 
0 0 0 0 0 0 0 0 0 
0 0 0 0 0 0 0 0 0 
0 0 0 0 0 0 0 0 0 
0 0 0 0 0 0 0 0 0 
0 0 0 0 0 0 0 0 0 
0 0 0 0 0 0 0 0 0 
0 0 0 0 0 0 0 0 0 
0 0 0 0 0 0 0 0 0 
0 0 0 0 0 0 0 0 0 
0 0 0 0 0 0 0 0 0 
0 0 0 0 0 0 0 0 0 
0 0 0 0 0 0 0 0 0 
0 0 0 0 0 0 0 0 0 
0 0 0 0 0 0 0 0 0 
0 0 0 0 0 0 0 0 0 
0 0 0 0 0 0 0 0 0 
0 0 0 0 0 0 0 0 0 
0 0 0 0 0 0 0 0 0 
0 0 0 0 0 0 0 0 0 
0 0 0 0 0 0 0 0 0 
0 0 0 0 0 0 0 0 0 
0 0 0 0 0 0 0 0 0 
0 0 0 0 0 0 0 0 0 
0 0 0 0 0 0 0 0 0 
0 0 0 0 0 0 0 0 0 
0 0 0 0 0 0 0 0 0 
0 0 0 0 0 0 0 0 0 
0 0 0 0 0 0 0 0 0 
0 0 0 0 0 0 0 0 0 
0 0 0 0 0 0 0 0 0 
0 0 0 0 0 0 0 0 0 
0 0 0 0 0 0 0 0 0 
0 0 0 0 0 0 0 0 0 
0 0 0 0 0 0 0 0 0 
0 0 0 0 0 0 0 0 0 
0 0 0 0 0 0 0 0 0 
0 0 0 0 0 0 0 0 0 
0 0 0 0 0 0 0 0 0 
0 0 0 0 0 0 0 0 0 
0 0 0 0 0 0 0 0 0 
0 0 0 0 0 0 0 0 0 
0 0 0 0 0 0 0 0 0 
0 0 0 0 0 0 0 0 0 
0 0 0 0 0 0 0 0 0 
0 0 0 0 0 0 0 0 0 
0 0 0 0 0 0 0 0 0 
0 0 0 0 0 0 0 0 0 
0 0 0 0 0 0 0 0 0 
0 0 0 0 0 0 0 0 0 
0 0 0 0 0 0 0 0 0 
0 0 0 0 0 0 0 0 0 
0 0 0 0 0 0 0 0 0 
0 0 0 0 0 0 0 0 0 
0 0 0 0 0 0 0 0 0 
0 0 0 0 0 0 0 0 0 
0 0 0 0 0 0 0 0 0 
0 0 0 0 0 0 0 0 0 
0 0 0 0 0 0 0 0 0 
0 0 0 0 0 0 0 0 0 
0 0 0 0 0 0 0 0 0 
0 0 0 0 0 0 0 0 0 
0 0 0 0 0 0 0 0 0 
0 0 0 0 0 0 0 0 0 
0 0 0 0 0 0 0 0 0 
0 0 0 0 0 0 0 0 0 
0 0 0 0 0 0 0 0 0 
0 0 0 0 0 0 0 0 0 
0 0 0 0 0 0 0 0 0 
0 0 0 0 0 0 0 0 0 
0 0 0 0 0 0 0 0 0 
0 0 0 0 0 0 0 0 0 
0 0 0 0 0 0 0 0 0 
0 0 0 0 0 0 0 0 0 
0 0 0 0 0 0 0 0 0 
0 0 0 0 0 0 0 0 0 
0 0 0 0 0 0 0 0 0 
0 0 0 0 0 0 0 0 0 
0 0 0 0 0 0 0 0 0 
0 0 0 0 0 0 0 0 0 
0 0 0 0 0 0 0 0 0 
0 0 0 0 0 0 0 0 0 
0 0 0 0 0 0 0 0 0 
0 0 0 0 0 0 0 0 0 
0 0 0 0 0 0 0 0 0 
0 0 0 0 0 0 0 0 0 
0 0 0 0 0 0 0 0 0 
0 0 0 0 0 0 0 0 0 
0 0 0 0 0 0 0 0 0 
0 0 0 0 0 0 0 0 0 
0 0 0 0 0 0 0 0 0 
0 0 0 0 0 0 0 0 0 
0 0 0 0 0 0 0 0 0 
0 0 0 0 0 0 0 0 0 
0 0 0 0 0 0 0 0 0 
0 0 0 0 0 0 0 0 0 
0 0 0 0 0 0 0 0 0 
0 0 0 0 0 0 0 0 0 
0 0 0 0 0 0 0 0 0 
0 0 0 0 0 0 0 0 0 
0 0 0 0 0 0 0 0 0 
0 0 0 0 0 0 0 0 0 
0 0 0 0 0 0 0 0 0 
0 0 0 0 0 0 0 0 0 
0 0 0 0 0 0 0 0 0 
0 0 0 0 0 0 0 0 0 
0 0 0 0 0 0 0 0 0 
0 0 0 0 0 0 
v 3 1163 double
0.0080156891962 -0.0015029605931 0.004447886628 0.010048934566 -0.00070430313784 0.0034683114765 -0.19048707261 0.037453699347 -0.044591951551 
0.0046274359853 0.008066801115 -0.0032981339191 -0.0056303209371 0.0085283445581 0.016039859049 -0.027173646627 0.011902077028 0.021408443641 
-0.01040054753 0.0058004044742 0.04555054737 -0.029080006669 0.04353332093 0.035337047209 -0.084222972431 0.081829535961 -0.0015657430505 
-0.015970077835 0.15166809512 0.0078683031147 0.0084999301845 0.1323890659 0.0081926522313 -0.13317801248 0.16221021249 0.0070055395523 
-0.0053592950639 0.14285143339 -0.050691698939 0.0086390268809 0.038845535794 -0.0015567670795 0.019798951085 0.040401127349 0.0076420378047 
-0.078830096885 0.05744859893 0.00019912973901 -0.073359751146 0.048740936439 0.033533506534 0.00042695319134 0.13846042764 0.029105660503 
0.053674959712 -0.047300543856 -0.035729475274 -0.097613623005 0.14261836488 -0.069878233524 0.012445841211 0.010247161759 0.022377678425 
-0.10342493795 -0.12228737551 -0.081399277375 -0.0030698152518 -0.047452105946 -0.019269619845 -0.055110835015 0.016838623604 0.044337729087 
-0.1521734376 0.090918890569 -0.019684191276 0.029483446629 0.02126726561 0.019328405917 0.012718550083 0.067616469755 0.01425317236 
0.096087284017 0.12261288527 -0.004294039915 -0.024108631974 0.052866387327 -0.0092589620461 -0.067244853967 0.04522047833 -0.011281584556 
-0.005644904192 0.11634111591 0.004857108426 -0.023837693753 0.013424326694 0.030482934101 -0.12700203971 0.048571700113 0.064957662293 
0.017418324533 0.057616216922 -0.030352324845 -0.046543241901 0.073906791384 0.057776194531 -0.013011560337 0.21057775716 -0.067361238852 
-0.1632132347 0.016458060305 -0.098071338305 -0.0032792434209 0.15987574977 -0.11366743156 -0.031250205073 0.21919385107 0.082559184695 
-0.02568388976 0.17898130461 0.043235618101 -0.1093329276 0.013073293453 -0.054392005946 0.039880780314 0.026113743392 0.024039611571 
-0.084078667498 0.04976864582 -0.029746205785 0.010421709988 0.032597662155 0.089304931032 0.035121297983 0.12847363527 0.096812815135 
-0.043962486341 0.0078226513206 0.0099943416888 0.047803103404 -0.019324961862 -0.018901646946 0.048145546629 0.065638895238 -0.073652038648 
8.7304082862e-05 0.05658216547 0.0490846904 -0.10514529648 0.01736526256 0.032910920883 0.023475480505 0.23269993324 -0.13228825416 
0.070840408429 0.24857152678 -0.025740045988 0.095677381331 0.0044200649861 -0.086041273012 0.17906924697 0.04465336239 0.12954131523 
0.042602169189 0.089323789222 -0.065956124659 0.088817694295 0.1124998154 -0.053149249242 -0.011140416409 0.097767829241 -0.12921837017 
0.015727314557 0.021455075493 -0.0024677751594 -0.023683525094 0.038479039595 0.077669425022 -0.0039167831326 0.051254836739 -0.001557137884 
-0.016476201133 0.099454444818 -0.084306564822 0.12805066387 0.097112908791 0.070525714734 0.21273066105 0.083784470045 0.0040210919325 
0.092836600924 0.11632370629 -0.033720182364 -0.041178332009 0.14957725344 0.14796284926 0.028538407798 0.025056636625 -0.064268107381 
0.032153006952 0.017443458787 0.013840565836 -0.12138748745 0.023556564993 -0.062933400745 0.11675560386 0.0055103898253 0.016518092401 
0.065426130544 0.13385490915 0.035482408426 -0.033229108723 0.13146619811 -0.072439225811 -0.15104217532 0.21350433729 -0.08847513098 
-0.034575399922 0.014476296317 -0.0031718926662 0.031590655792 0.043572963739 -0.02529784089 0.066069911894 0.030486271706 0.011613924384 
0.0094198569489 0.15103026516 -0.022541178981 -0.044097505797 -0.017331996616 -0.013690871854 0.027032685635 0.021794619309 -0.024559164227 
0.0027558020571 0.066480200587 0.020948937278 0.068650783752 0.018026213225 0.060475464125 0.0720265258 0.092481050782 0.10567728676 
-0.02456028625 0.011359228832 -0.0113720337 0.13889610943 -0.022972110717 0.059703086428 -0.13181561628 -0.0047000635499 0.0047267375554 
-0.075355759169 0.021676425543 0.0073510566327 0.014928890544 0.04441030584 -0.041816267398 -0.14265671729 0.14287988695 -0.12975060637 