# vtk DataFile Version 5.1
Generated by LIGGGHTS
ASCII
DATASET POLYDATA
POINTS 883 float
-0.137885 0.0562211 -0.144456 -0.141373 0.0695942 -0.143857 -0.100387 0.0996814 -0.142895 
-0.0733059 0.108491 -0.142728 -0.122429 0.112598 -0.143092 -0.0494935 0.166887 -0.14286 
-0.144152 0.0595937 -0.135249 -0.118214 0.0573843 -0.139421 -0.0745776 0.0585252 -0.138222 
-0.00955422 0.0685374 -0.140826 -0.0618714 0.0793175 -0.136241 -0.133697 0.0666962 -0.133087 
-0.0438961 0.0691344 -0.129181 -0.0767966 0.0830642 -0.13233 -0.00484521 0.0893608 -0.133366 
-0.0231672 0.10474 -0.134016 -0.00797309 0.140181 -0.131874 -0.115784 0.0598553 -0.124226 
-0.130085 0.0631533 -0.120281 -0.138276 0.0822976 -0.120659 -0.0716208 0.160112 -0.127354 
-0.140622 0.057067 -0.116597 -0.0840984 0.0582077 -0.119299 -0.127656 0.0782176 -0.117975 
-0.0364419 0.0791215 -0.119199 -0.0876026 0.0924926 -0.117748 -0.114019 0.114265 -0.115834 
-0.0221789 0.0587914 -0.105515 -0.123073 0.0635539 -0.110154 -0.0327086 0.0711417 -0.109974 
-0.116358 0.0845634 -0.10882 -0.0149483 0.092017 -0.11172 -0.0817335 0.108449 -0.111071 
-0.111143 0.130842 -0.1082 -0.0235369 0.163052 -0.109626 -0.0837864 0.189006 -0.109418 
-0.0619673 0.0722684 -0.0995268 -0.0066442 0.0731 -0.0905083 -0.0456253 0.10393 -0.0938454 
-0.0659264 0.12032 -0.0934722 -0.0527275 0.0630971 -0.0876251 -0.0556358 0.0982476 -0.0886202 
-0.0690014 0.195786 -0.0869697 -0.0209337 0.0652645 -0.0780206 -0.0891675 0.0720627 -0.0828328 
-0.0547106 0.0700586 -0.0749131 -0.042676 0.0891176 -0.077821 -0.0743749 0.0955367 -0.0783917 
-0.129354 0.0759266 -0.074391 -0.0295995 0.0713383 -0.0727579 -0.0848825 0.197156 -0.0727564 
-0.10907 0.05924 -0.0668374 -0.0422327 0.0578362 -0.0654237 -0.116306 0.0670708 -0.0620893 
-0.043621 0.114855 -0.0619757 -0.115234 0.149363 -0.0604817 -0.0737678 0.0562406 -0.0474488 
-0.0389237 0.055865 -0.0462846 -0.00824972 0.0695878 -0.0455914 -0.065028 0.0711127 -0.0482421 
-0.115745 0.0786485 -0.051339 -0.143933 0.0954103 -0.0497165 -0.025527 0.104081 -0.046384 
-0.0257845 0.172598 -0.0477951 -0.0429715 0.0854481 -0.044761 -0.0954203 0.0809379 -0.0295909 
-0.030735 0.0931479 -0.0350231 -0.011741 0.0888559 -0.0331823 -0.0924044 0.0963005 -0.0358389 
-0.0240974 0.116139 -0.038535 -0.00833262 0.132209 -0.0305631 -0.135607 0.146781 -0.0376892 
-0.112528 0.0567268 -0.0284823 -0.023368 0.0845675 -0.0272177 -0.0701497 0.0694444 -0.0154426 
-0.0589466 0.0680786 -0.0184506 -0.0314242 0.0779823 -0.0222519 -0.141212 0.105086 -0.0228826 
-0.0488331 0.198812 -0.019761 -0.11286 0.0581737 -0.0133405 -0.133552 0.0657639 -0.0140438 
-0.122509 0.061774 -0.00920836 -0.038279 0.0615193 -0.0144212 -0.00629151 0.079965 -0.0126708 
-0.0191025 0.104117 -0.0139637 -0.0693136 0.110619 -0.0103459 -0.134418 0.116924 -0.0123451 
-0.121193 0.120851 -0.00576884 -0.0427159 0.152351 -0.0136488 -0.137544 0.0570849 -0.00218605 
-0.0828518 0.0587642 -0.00226078 -0.0444423 0.0596548 -0.00401361 -0.110423 0.0630875 -0.00426547 
-0.119817 0.0676432 0.00721574 -0.109886 0.072582 0.00227329 -0.103625 0.0600435 0.0110146 
-0.0403107 0.0560037 0.0137525 -0.143576 0.064455 0.0140592 -0.133719 0.0642117 0.0122081 
-0.130753 0.0750907 0.0165552 -0.0259 0.0710908 0.0175899 -0.110133 0.0792969 0.0199353 
-0.0722818 0.106447 0.0182176 -0.0956239 0.117599 0.0208716 -0.12389 0.0553793 0.0241364 
-0.021416 0.0595351 0.0280943 -0.11946 0.0733054 0.0255366 -0.0365424 0.07506 0.0265535 
-0.0227146 0.0727557 0.0304977 -0.123868 0.114348 0.0298464 -0.00152458 0.0551031 0.037325 
-0.0869132 0.0737038 0.0325363 -0.0564994 0.0765148 0.030601 -0.127974 0.0897015 0.0371816 
-0.0427866 0.186595 0.0363669 -0.0437148 0.0584278 0.038363 -0.105186 0.0666949 0.0417883 
-0.0628555 0.0654868 0.0443894 -0.13361 0.141157 0.0435236 -0.0761982 0.0644012 0.0484082 
-0.137266 0.0716964 0.0463255 -0.0900396 0.195201 0.0481328 -0.132755 0.062257 0.0571896 
-0.0346853 0.0616908 0.0584558 -0.000989903 0.10186 0.0540833 -0.109858 0.181196 0.0600662 
-0.0860099 0.0572363 0.0623476 -0.138552 0.0696282 0.0608324 -0.0137881 0.0760925 0.0619372 
-0.0732055 0.128048 0.0676938 -0.129762 0.0603481 0.0693687 -0.00292324 0.056438 0.0743711 
-0.0391701 0.0803512 0.0722299 -0.0332716 0.125067 0.0706058 -0.131502 0.063062 0.0798882 
-0.117259 0.0904275 0.0797585 -0.00547014 0.0924856 0.0812485 -0.116214 0.102268 0.0769894 
-0.0794646 0.173013 0.0767721 -0.0484494 0.0668684 0.0866058 -0.0183457 0.062163 0.0827704 
-0.128366 0.10793 0.0878965 -0.0398717 0.200292 0.0885568 -0.0299623 0.120159 0.100165 
-0.056488 0.136054 0.10427 -0.120767 0.199161 0.0986327 -0.0277558 0.0715699 0.110615 
-0.0244142 0.0588748 0.116607 -0.0634028 0.131873 0.116054 -0.0398687 0.200291 0.0846014 
-0.0438271 0.200292 0.0885538 -0.109689 0.200581 0.113557 -0.0470796 0.157133 0.127749 
-0.050321 0.193783 0.122911 -0.0438242 0.200291 0.0845984 -0.0473196 0.172498 0.144275 
-0.0836627 0.127658 0.131625 -0.0837642 0.178835 0.129717 -0.118703 0.181197 0.130425 
-0.0751645 0.200233 0.130633 -0.124587 0.0696837 0.141016 -0.0951583 0.0904314 0.14112 
-0.0793353 0.16566 0.138048 -0.13943 0.196098 0.139342 -0.10409 0.0575776 0.142875 
-0.00140113 0.0708636 0.144866 -0.0895916 0.104182 0.143092 -0.129613 0.210977 -0.133844 
-0.129613 0.210977 -0.12929 -0.129613 0.204291 -0.133844 -0.129613 0.204291 -0.12929 
-0.125059 0.210977 -0.12929 -0.125059 0.210977 -0.133844 -0.125059 0.204291 -0.12929 
-0.125059 0.204291 -0.133844 -0.114822 0.266807 -0.11376 -0.101687 0.266819 -0.11376 
-0.114841 0.308879 -0.113865 -0.101706 0.308892 -0.113865 -0.0412666 0.217605 -0.106665 
-0.0341184 0.217605 -0.106665 -0.0412666 0.234989 -0.106665 -0.0341184 0.234989 -0.106665 
-0.0412666 0.217605 -0.0995164 -0.0341184 0.217605 -0.0995164 -0.0412666 0.234989 -0.0995164 
-0.0341184 0.234989 -0.0995164 -0.114822 0.266879 -0.100625 -0.101687 0.266891 -0.100626 
-0.11484 0.308951 -0.100731 -0.101706 0.308964 -0.10073 -0.0831685 0.213033 -0.0919832 
-0.089319 0.213033 -0.0919832 -0.089319 0.226303 -0.0919832 -0.0831685 0.226303 -0.0919832 
-0.089319 0.213033 -0.0858327 -0.0831685 0.213033 -0.0858327 -0.089319 0.226303 -0.0858327 
-0.0831685 0.226303 -0.0858327 -0.0559221 0.230366 -0.0891221 -0.0461798 0.230366 -0.0891221 
-0.0559221 0.25845 -0.0891273 -0.0461798 0.25845 -0.0891273 -0.0607489 0.214233 -0.0770017 
-0.0672984 0.214225 -0.0769916 -0.119943 0.227863 -0.0755792 -0.110799 0.227865 -0.0756641 
-0.0607606 0.229148 -0.0770504 -0.0673101 0.22914 -0.0770403 -0.0559221 0.230371 -0.0793795 
-0.0461798 0.230371 -0.0793795 -0.119946 0.253477 -0.0755871 -0.110802 0.253479 -0.075672 
-0.0559221 0.258452 -0.0793853 -0.0461798 0.258452 -0.0793853 -0.0607388 0.214267 -0.0704521 
-0.0672883 0.214258 -0.070442 -0.0607505 0.229182 -0.0705009 -0.0673 0.229174 -0.0704908 
-0.0232673 0.229564 -0.0687868 -0.0139242 0.229512 -0.0687441 -0.0231913 0.256001 -0.068843 
-0.0138481 0.255949 -0.0688003 -0.119858 0.227869 -0.0664356 -0.110714 0.227871 -0.0665205 
-0.0143201 0.229891 -0.0600868 -0.119861 0.253483 -0.0664435 -0.110718 0.253485 -0.0665283 
-0.086358 0.218898 -0.053406 -0.0788107 0.218898 -0.053406 -0.016362 0.225058 -0.0571523 
-0.00797063 0.225399 -0.0578078 -0.0233101 0.229603 -0.0594436 -0.086358 0.23793 -0.0534097 
-0.0788107 0.23793 -0.0534097 -0.0581331 0.234751 -0.0546849 -0.0477922 0.234751 -0.0546849 
-0.0167178 0.249365 -0.0578524 -0.0079733 0.249367 -0.057822 -0.0232341 0.25604 -0.0594998 
-0.0138909 0.255988 -0.0594571 -0.0581331 0.265303 -0.0546849 -0.0477922 0.265303 -0.0546849 
-0.086358 0.218903 -0.0458586 -0.0788107 0.218903 -0.0458586 -0.0167456 0.225407 -0.0490936 
-0.00800102 0.225409 -0.0490633 -0.086358 0.237931 -0.0458626 -0.0788107 0.237931 -0.0458626 
-0.0167483 0.249375 -0.0491078 -0.00800369 0.249376 -0.0490774 -0.0581331 0.234751 -0.0443439 
-0.0477922 0.234751 -0.0443439 -0.0581331 0.265303 -0.0443439 -0.0477922 0.265303 -0.0443439 
-0.106526 0.208668 -0.0305225 -0.106526 0.208668 -0.034877 -0.106526 0.202804 -0.0305225 
-0.106526 0.202804 -0.034877 -0.102171 0.208668 -0.0305225 -0.102171 0.208668 -0.034877 
-0.102171 0.202804 -0.034877 -0.102171 0.202804 -0.0305225 -0.131057 0.216798 -0.034269 
-0.124108 0.216798 -0.034269 -0.131057 0.233358 -0.0342689 -0.124108 0.233358 -0.0342689 
-0.131057 0.216797 -0.0273204 -0.124108 0.216797 -0.0273204 -0.131057 0.233359 -0.0273203 
-0.124108 0.233359 -0.0273203 -0.0215754 0.227813 -0.017937 -0.0129504 0.227738 -0.0161018 
-0.0219998 0.253372 -0.0165549 -0.0129732 0.253352 -0.0161129 -0.0183516 0.228327 -0.0099404 
-0.0299666 0.252001 -0.007897 -0.0179725 0.254167 -0.0112732 -0.049686 0.208723 -0.0040318 
-0.0453314 0.208727 -0.00403302 -0.0453229 0.202866 -0.00403179 -0.0496774 0.202857 -0.00403302 
-0.0304052 0.2275 -0.00773721 -0.0243326 0.226949 -0.00497055 -0.0129542 0.227753 -0.00699948 
-0.0251773 0.25115 -0.00347372 -0.0130945 0.25336 -0.00696934 -0.049686 0.20872 0.00172086 
-0.0453314 0.208729 0.00172208 -0.0496774 0.20286 0.00172207 -0.0453229 0.202863 0.00172085 
-0.0299684 0.227524 0.00124847 -0.0213801 0.227424 0.00278193 -0.0299666 0.252003 0.00124664 
-0.0208513 0.251992 0.00132656 -0.0845733 0.207642 0.0215626 -0.0899255 0.20764 0.0215802 
-0.0845761 0.21762 0.0215627 -0.0899283 0.217618 0.0215803 -0.0845557 0.207642 0.0269148 
-0.0899079 0.20764 0.0269325 -0.0845584 0.21762 0.026915 -0.0899107 0.217618 0.0269326 
-0.105739 0.208998 0.0364596 -0.105738 0.208994 0.0309078 -0.100186 0.208995 0.0309092 
-0.100188 0.208999 0.036461 -0.105739 0.219795 0.0309032 -0.105741 0.219799 0.036455 
-0.100189 0.219799 0.0364565 -0.100188 0.219796 0.0309046 -0.0700514 0.221995 0.0337995 
-0.062105 0.221995 0.0337995 -0.0700514 0.242671 0.0337995 -0.062105 0.242671 0.0337995 
-0.0157703 0.298675 0.031124 -0.00243762 0.29761 0.0313147 -0.014776 0.312007 0.0318429 
-0.00144312 0.310943 0.0320337 -0.0700514 0.221995 0.0417458 -0.062105 0.221995 0.0417458 
-0.0700514 0.242671 0.0417458 -0.062105 0.242671 0.0417458 -0.00265737 0.296732 0.0446478 
[...]
POINT_DATA 883
FIELD FieldData 8
id 1 883 int
3781 3801 3994 3744 3970 3884 3894 3745 2648 
3730 3749 2739 2901 3917 3952 3937 3726 2755 
3785 3823 3802 3024 3931 3023 3296 3981 3359 
3844 3586 3852 3908 3773 3180 3987 3959 3403 
3685 3943 3903 3830 3960 3808 3976 3966 3738 
3757 3242 3932 3716 3877 3949 3360 3731 3727 
3873 3243 3918 3961 2962 3814 3135 3896 3809 
3519 3758 2961 2824 2749 3939 3244 3774 3951 
3853 3995 3938 3786 3787 3920 3895 3885 3297 
3182 3919 2482 3879 3686 3815 2823 3953 3925 
3746 3975 3971 2902 3831 3720 3962 3688 3982 
3825 3782 3950 3996 3988 3836 3847 3803 3940 
3587 3909 3810 3775 3906 3955 3989 3747 3631 
3788 3728 3911 3854 2826 3760 3406 3846 3859 
3768 3864 3461 3761 3863 3871 3954 3765 3721 
3941 3325 3910 3904 3136 2550 3776 4535 2509 
3997 3886 3754 3977 3963 4534 4531 3933 3874 
3984 4530 3690 3632 3897 3921 3880 3729 3875 
3837 3722 3689 3848 3956 4444 4445 4442 4443 
4441 4448 4447 4446 4018 4022 4020 4024 4226 
4230 4228 4232 4227 4231 4229 4225 4019 4023 
4021 4017 4334 4330 4332 4336 4331 4335 4333 
4329 4042 4046 4044 4048 4286 4282 4084 4088 
4288 4284 4043 4047 4086 4090 4045 4041 4287 
4283 4281 4285 4058 4062 4060 4064 4085 4089 
4063 4087 4091 4194 4198 4138 4142 4059 4196 
4200 4026 4030 4140 4144 4061 4057 4028 4032 
4195 4199 4139 4143 4197 4193 4141 4137 4027 
4031 4029 4025 4478 4477 4476 4475 4482 4481 
4479 4480 4258 4262 4260 4264 4259 4263 4261 
4257 4092 4096 4094 4074 4093 4078 4095 4485 
4474 4487 4483 4076 4080 4075 4082 4073 4486 
4473 4484 4488 4077 4081 4079 4083 4366 4362 
4368 4364 4367 4363 4361 4365 4347 4346 4350 
4351 4348 4349 4345 4352 4162 4166 4164 4168 
4010 4014 4012 4016 4163 4167 4165 4161 4015 
4011 4013 4009 4354 4315 4314 4319 4318 4356 
4317 4316 4313 4320 4355 4266 4270 4357 4146 
4150 4034 4038 4268 4272 4148 4152 4036 4040 
4002 4006 4004 4008 4500 4501 4499 4498 4267 
4271 4147 4151 4115 4119 4035 4039 4269 4265 
4149 4145 4117 4121 4068 4072 4037 4033 4154 
4158 4066 4070 4156 4160 4003 4007 4005 4001 
4234 4238 4155 4159 4214 4210 4116 4236 4120 
4240 4123 4127 4067 4071 4216 4212 4157 4153 
4118 4122 4125 4114 4069 4065 4387 4391 4235 
4239 4389 4393 4215 4211 4237 4233 4124 4128 
4209 4213 4126 4113 4388 4392 4452 4450 4456 
4454 4418 4422 4390 4394 4420 4424 4453 4451 
4449 4455 4419 4423 4290 4294 4421 4417 4178 
4182 4292 4296 4180 4184 4338 4342 4291 4295 
4179 4183 4340 4344 4293 4289 4181 4177 4512 
4508 4400 4399 4396 4395 4339 4343 4385 4386 
4398 4397 4341 4337 4509 4505 4050 4052 4051 
4053 4529 4536 4510 4506 4533 4532 4511 4507 
3899 3849 3927 3161 3876 3905 3942 3818 3934 
3811 3900 3789 3440 3957 3972 3838 3762 3860 
3784 3741 3717 3964 3978 3945 3025 3965 3405 
2927 3755 3922 3985 3442 3913 3870 3263 3867 
2989 3858 3796 3666 2591 3856 2481 3778 3711 
3888 2867 2690 3779 3912 3999 3869 3819 3441 
3826 3737 3665 3712 3805 3812 3766 3208 3806 
3881 3691 3386 2748 3770 3162 3889 3840 2483 
3850 3797 3891 3262 3723 2751 3324 3851 3777 
3614 3793 3973 3929 4551 3771 2750 3890 3991 
3946 3990 3714 3914 3763 3915 3882 3385 3791 
4546 4547 4550 3764 3923 3732 3901 3742 3820 
3718 2790 2484 3828 3668 3084 3692 2963 3974 
3979 3993 3799 3986 3916 3998 3835 3667 3924 
2928 3790 3947 3750 4543 3739 3715 3719 3892 
3821 4000 3298 3751 3772 3861 3926 3833 3857 
3443 3958 3968 3843 3733 3798 3983 3780 3935 
3326 3800 2868 3872 3980 3992 3792 3930 2753 
3725 3967 3936 3883 3444 3969 3693 3743 3948 
3902 4538 4539 4542 3613 4518 4517 4522 4521 
4406 4402 4408 4404 4407 4403 4401 4405 4526 
4525 4513 4514 4430 4426 4432 4428 4431 4427 
4425 4429 4489 4496 4492 4493 4495 4490 4491 
4494 4375 4370 4371 4374 4298 4302 4369 4376 
4372 4373 4300 4304 4299 4303 4301 4297 4461 
4460 4459 4458 4464 4457 4463 4462 4202 4206 
4204 4208 4203 4207 4205 4201 4516 4515 4520 
4519 4524 4523 4528 4527 4545 4552 4548 4549 
4306 4310 4308 4312 4358 4360 4322 4323 4326 
4327 4307 4311 4324 4325 4328 4321 4309 4305 
4359 4353 4497 4504 4502 4503 4378 4382 4380 
4384 4186 4190 4188 4192 4379 4383 4381 4377 
4243 4247 4187 4191 4185 4099 4103 4245 4249 
4189 4101 4105 4244 4248 4100 4104 4246 4250 
4102 4106 4410 4414 4412 4416 4411 4415 4413 
4409 4440 4436 4438 4434 4437 4433 4439 4435 
4218 4222 4251 4255 4130 4134 4253 4242 4220 
4224 4132 4136 4219 4223 4252 4256 4170 4174 
4131 4135 4254 4241 4221 4217 4172 4176 4133 
4129 4472 4468 4466 4470 4171 4175 4054 4173 
4169 4056 4465 4469 4467 4471 4274 4278 4276 
4280 4107 4111 4109 4098 4275 4279 4055 4277 
4273 4108 4112 4110 4097 4049 4537 4544 4540 
4541 
type 1 883 int
2 2 2 2 2 2 2 2 2 
2 2 2 2 2 2 2 2 2 
2 2 2 2 2 2 2 2 2 
2 2 2 2 2 2 2 2 2 
2 2 2 2 2 2 2 2 2 
2 2 2 2 2 2 2 2 2 
2 2 2 2 2 2 2 2 2 
2 2 2 2 2 2 2 2 2 
2 2 2 2 2 2 2 2 2 
2 2 2 2 2 2 2 2 2 
2 2 2 2 2 2 2 2 2 
2 2 2 2 2 2 2 2 2 
2 2 2 2 2 2 2 2 2 
2 2 2 2 2 2 2 2 2 
2 2 2 2 2 2 2 2 2 
2 2 2 2 2 2 2 2 2 
2 2 2 2 2 2 2 2 2 
2 2 2 2 2 2 2 2 2 
2 2 2 2 2 2 2 2 2 
2 2 2 2 2 2 2 2 2 
2 2 2 2 2 2 2 2 2 
2 2 2 2 2 2 2 2 2 
2 2 2 2 2 2 2 2 2 
2 2 2 2 2 2 2 2 2 
2 2 2 2 2 2 2 2 2 
2 2 2 2 2 2 2 2 2 
2 2 2 2 2 2 2 2 2 
2 2 2 2 2 2 2 2 2 
2 2 2 2 2 2 2 2 2 
2 2 2 2 2 2 2 2 2 
2 2 2 2 2 2 2 2 2 
2 2 2 2 2 2 2 2 2 
2 2 2 2 2 2 2 2 2 
2 2 2 2 2 2 2 2 2 
2 2 2 2 2 2 2 2 2 
2 2 2 2 2 2 2 2 2 
2 2 2 2 2 2 2 2 2 
2 2 2 2 2 2 2 2 2 
2 2 2 2 2 2 2 2 2 
2 2 2 2 2 2 2 2 2 
2 2 2 2 2 2 2 2 2 
2 2 2 2 2 2 2 2 2 
2 2 2 2 2 2 2 2 2 
2 2 2 2 2 2 2 2 2 
2 2 2 2 2 2 2 2 2 
2 2 2 2 2 2 2 2 2 
2 2 2 2 2 2 2 2 2 
2 2 2 2 2 2 2 2 2 
2 2 2 2 2 2 2 2 2 
2 2 2 2 2 2 2 2 2 
2 2 2 2 2 2 2 2 2 
2 2 2 2 2 2 2 2 2 
2 2 2 2 2 2 2 2 2 
2 2 2 2 2 2 2 2 2 
2 2 2 2 2 2 2 2 2 
2 2 2 2 2 2 2 2 2 
2 2 2 2 2 2 2 2 2 
2 2 2 2 2 2 2 2 2 
2 2 2 2 2 2 2 2 2 
2 2 2 2 2 2 2 2 2 
2 2 2 2 2 2 2 2 2 
2 2 2 2 2 2 2 2 2 
2 2 2 2 2 2 2 2 2 
2 2 2 2 2 2 2 2 2 
2 2 2 2 2 2 2 2 2 
2 2 2 2 2 2 2 2 2 
2 2 2 2 2 2 2 2 2 
2 2 2 2 2 2 2 2 2 
2 2 2 2 2 2 2 2 2 
2 2 2 2 2 2 2 2 2 
2 2 2 2 2 2 2 2 2 
2 2 2 2 2 2 2 2 2 
2 2 2 2 2 2 2 2 2 
2 2 2 2 2 2 2 2 2 
2 2 2 2 2 2 2 2 2 
2 2 2 2 2 2 2 2 2 
2 2 2 2 2 2 2 2 2 
2 2 2 2 2 2 2 2 2 
2 2 2 2 2 2 2 2 2 
2 2 2 2 2 2 2 2 2 
2 2 2 2 2 2 2 2 2 
2 2 2 2 2 2 2 2 2 
2 2 2 2 2 2 2 2 2 
2 2 2 2 2 2 2 2 2 
2 2 2 2 2 2 2 2 2 
2 2 2 2 2 2 2 2 2 
2 2 2 2 2 2 2 2 2 
2 2 2 2 2 2 2 2 2 
2 2 2 2 2 2 2 2 2 
2 2 2 2 2 2 2 2 2 
2 2 2 2 2 2 2 2 2 
2 2 2 2 2 2 2 2 2 
2 2 2 2 2 2 2 2 2 
2 2 2 2 2 2 2 2 2 
2 2 2 2 2 2 2 2 2 
2 2 2 2 2 2 2 2 2 
2 2 2 2 2 2 2 2 2 
2 2 2 2 2 2 2 2 2 
2 
i 3 883 int
0 0 0 0 0 0 0 0 0 
0 0 0 0 0 0 0 0 0 
0 0 0 0 0 0 0 0 0 
0 0 0 0 0 0 0 0 0 
0 0 0 0 0 0 0 0 0 
0 0 0 0 0 0 0 0 0 
0 0 0 0 0 0 0 0 0 
0 0 0 0 0 0 0 0 0 
0 0 0 0 0 0 0 0 0 
0 0 0 0 0 0 0 0 0 
0 0 0 0 0 0 0 0 0 
0 0 0 0 0 0 0 0 0 
0 0 0 0 0 0 0 0 0 
0 0 0 0 0 0 0 0 0 
0 0 0 0 0 0 0 0 0 
0 0 0 0 0 0 0 0 0 
0 0 0 0 0 0 0 0 0 
0 0 0 0 0 0 0 0 0 
0 0 0 0 0 0 0 0 0 
0 0 0 0 0 0 0 0 0 
0 0 0 0 0 0 0 0 0 
0 0 0 0 0 0 0 0 0 
0 0 0 0 0 0 0 0 0 
0 0 0 0 0 0 0 0 0 
0 0 0 0 0 0 0 0 0 
0 0 0 0 0 0 0 0 0 
0 0 0 0 0 0 0 0 0 
0 0 0 0 0 0 0 0 0 
0 0 0 0 0 0 0 0 0 
0 0 0 0 0 0 0 0 0 
0 0 0 0 0 0 0 0 0 
0 0 0 0 0 0 0 0 0 
0 0 0 0 0 0 0 0 0 
0 0 0 0 0 0 0 0 0 
0 0 0 0 0 0 0 0 0 
0 0 0 0 0 0 0 0 0 
0 0 0 0 0 0 0 0 0 
0 0 0 0 0 0 0 0 0 
0 0 0 0 0 0 0 0 0 
0 0 0 0 0 0 0 0 0 
0 0 0 0 0 0 0 0 0 
0 0 0 0 0 0 0 0 0 
0 0 0 0 0 0 0 0 0 
0 0 0 0 0 0 0 0 0 
0 0 0 0 0 0 0 0 0 
0 0 0 0 0 0 0 0 0 
0 0 0 0 0 0 0 0 0 
0 0 0 0 0 0 0 0 0 
0 0 0 0 0 0 0 0 0 
0 0 0 0 0 0 0 0 0 
0 0 0 0 0 0 0 0 0 
0 0 0 0 0 0 0 0 0 
0 0 0 0 0 0 0 0 0 
0 0 0 0 0 0 0 0 0 
0 0 0 0 0 0 0 0 0 
0 0 0 0 0 0 0 0 0 
0 0 0 0 0 0 0 0 0 
0 0 0 0 0 0 0 0 0 
0 0 0 0 0 0 0 0 0 
0 0 0 0 0 0 0 0 0 
0 0 0 0 0 0 0 0 0 
0 0 0 0 0 0 0 0 0 
0 0 0 0 0 0 0 0 0 
0 0 0 0 0 0 0 0 0 
0 0 0 0 0 0 0 0 0 
0 0 0 0 0 0 0 0 0 
0 0 0 0 0 0 0 0 0 
0 0 0 0 0 0 0 0 0 
0 0 0 0 0 0 0 0 0 
0 0 0 0 0 0 0 0 0 
0 0 0 0 0 0 0 0 0 
0 0 0 0 0 0 0 0 0 
0 0 0 0 0 0 0 0 0 
0 0 0 0 0 0 0 0 0 
0 0 0 0 0 0 0 0 0 
0 0 0 0 0 0 0 0 0 
0 0 0 0 0 0 0 0 0 
0 0 0 0 0 0 0 0 0 
0 0 0 0 0 0 0 0 0 
0 0 0 0 0 0 0 0 0 
0 0 0 0 0 0 0 0 0 
0 0 0 0 0 0 0 0 0 
0 0 0 0 0 0 0 0 0 
0 0 0 0 0 0 0 0 0 
0 0 0 0 0 0 0 0 0 
0 0 0 0 0 0 0 0 0 
0 0 0 0 0 0 0 0 0 
0 0 0 0 0 0 0 0 0 
0 0 0 0 0 0 0 0 0 
0 0 0 0 0 0 0 0 0 
0 0 0 0 0 0 0 0 0 
0 0 0 0 0 0 0 0 0 
0 0 0 0 0 0 0 0 0 
0 0 0 0 0 0 0 0 0 
0 0 0 0 0 0 0 0 0 
0 0 0 0 0 0 0 0 0 
0 0 0 0 0 0 0 0 0 
0 0 0 0 0 0 0 0 0 
0 0 0 0 0 0 0 0 0 
0 0 0 0 0 0 0 0 0 
0 0 0 0 0 0 0 0 0 
0 0 0 0 0 0 0 0 0 
0 0 0 0 0 0 0 0 0 
0 0 0 0 0 0 0 0 0 
0 0 0 0 0 0 0 0 0 
0 0 0 0 0 0 0 0 0 
0 0 0 0 0 0 0 0 0 
0 0 0 0 0 0 0 0 0 
0 0 0 0 0 0 0 0 0 
0 0 0 0 0 0 0 0 0 
0 0 0 0 0 0 0 0 0 
0 0 0 0 0 0 0 0 0 
0 0 0 0 0 0 0 0 0 
0 0 0 0 0 0 0 0 0 
0 0 0 0 0 0 0 0 0 
0 0 0 0 0 0 0 0 0 
0 0 0 0 0 0 0 0 0 
0 0 0 0 0 0 0 0 0 
0 0 0 0 0 0 0 0 0 
0 0 0 0 0 0 0 0 0 
0 0 0 0 0 0 0 0 0 
0 0 0 0 0 0 0 0 0 
0 0 0 0 0 0 0 0 0 
0 0 0 0 0 0 0 0 0 
0 0 0 0 0 0 0 0 0 
0 0 0 0 0 0 0 0 0 
0 0 0 0 0 0 0 0 0 
0 0 0 0 0 0 0 0 0 
0 0 0 0 0 0 0 0 0 
0 0 0 0 0 0 0 0 0 
0 0 0 0 0 0 0 0 0 
0 0 0 0 0 0 0 0 0 
0 0 0 0 0 0 0 0 0 
0 0 0 0 0 0 0 0 0 
0 0 0 0 0 0 0 0 0 
0 0 0 0 0 0 0 0 0 
0 0 0 0 0 0 0 0 0 
0 0 0 0 0 0 0 0 0 
0 0 0 0 0 0 0 0 0 
0 0 0 0 0 0 0 0 0 
0 0 0 0 0 0 0 0 0 
0 0 0 0 0 0 0 0 0 
0 0 0 0 0 0 0 0 0 
0 0 0 0 0 0 0 0 0 
0 0 0 0 0 0 0 0 0 
0 0 0 0 0 0 0 0 0 
0 0 0 0 0 0 0 0 0 
0 0 0 0 0 0 0 0 0 
0 0 0 0 0 0 0 0 0 
0 0 0 0 0 0 0 0 0 
0 0 0 0 0 0 0 0 0 
0 0 0 0 0 0 0 0 0 
0 0 0 0 0 0 0 0 0 
0 0 0 0 0 0 0 0 0 
0 0 0 0 0 0 0 0 0 
0 0 0 0 0 0 0 0 0 
0 0 0 0 0 0 0 0 0 
0 0 0 0 0 0 0 0 0 
0 0 0 0 0 0 0 0 0 
0 0 0 0 0 0 0 0 0 
0 0 0 0 0 0 0 0 0 
0 0 0 0 0 0 0 0 0 
0 0 0 0 0 0 0 0 0 
0 0 0 0 0 0 0 0 0 
0 0 0 0 0 0 0 0 0 
0 0 0 0 0 0 0 0 0 
0 0 0 0 0 0 0 0 0 
0 0 0 0 0 0 0 0 0 
0 0 0 0 0 0 0 0 0 
0 0 0 0 0 0 0 0 0 
0 0 0 0 0 0 0 0 0 
0 0 0 0 0 0 0 0 0 
0 0 0 0 0 0 0 0 0 
0 0 0 0 0 0 0 0 0 
0 0 0 0 0 0 0 0 0 
0 0 0 0 0 0 0 0 0 
0 0 0 0 0 0 0 0 0 
0 0 0 0 0 0 0 0 0 
0 0 0 0 0 0 0 0 0 
0 0 0 0 0 0 0 0 0 
0 0 0 0 0 0 0 0 0 
0 0 0 0 0 0 0 0 0 
0 0 0 0 0 0 0 0 0 
0 0 0 0 0 0 0 0 0 
0 0 0 0 0 0 0 0 0 
0 0 0 0 0 0 0 0 0 
0 0 0 0 0 0 0 0 0 
0 0 0 0 0 0 0 0 0 
0 0 0 0 0 0 0 0 0 
0 0 0 0 0 0 0 0 0 
0 0 0 0 0 0 0 0 0 
0 0 0 0 0 0 0 0 0 
0 0 0 0 0 0 0 0 0 
0 0 0 0 0 0 0 0 0 
0 0 0 0 0 0 0 0 0 
0 0 0 0 0 0 0 0 0 
0 0 0 0 0 0 0 0 0 
0 0 0 0 0 0 0 0 0 
0 0 0 0 0 0 0 0 0 
0 0 0 0 0 0 0 0 0 
0 0 0 0 0 0 0 0 0 
0 0 0 0 0 0 0 0 0 
0 0 0 0 0 0 0 0 0 
0 0 0 0 0 0 0 0 0 
0 0 0 0 0 0 0 0 0 
0 0 0 0 0 0 0 0 0 
0 0 0 0 0 0 0 0 0 
0 0 0 0 0 0 0 0 0 
0 0 0 0 0 0 0 0 0 
0 0 0 0 0 0 0 0 0 
0 0 0 0 0 0 0 0 0 
0 0 0 0 0 0 0 0 0 
0 0 0 0 0 0 0 0 0 
0 0 0 0 0 0 0 0 0 
0 0 0 0 0 0 0 0 0 
0 0 0 0 0 0 0 0 0 
0 0 0 0 0 0 0 0 0 
0 0 0 0 0 0 0 0 0 
0 0 0 0 0 0 0 0 0 
0 0 0 0 0 0 0 0 0 
0 0 0 0 0 0 0 0 0 
0 0 0 0 0 0 0 0 0 
0 0 0 0 0 0 0 0 0 
0 0 0 0 0 0 0 0 0 
0 0 0 0 0 0 0 0 0 
0 0 0 0 0 0 0 0 0 
0 0 0 0 0 0 0 0 0 
0 0 0 0 0 0 0 0 0 
0 0 0 0 0 0 0 0 0 
0 0 0 0 0 0 0 0 0 
0 0 0 0 0 0 0 0 0 
0 0 0 0 0 0 0 0 0 
0 0 0 0 0 0 0 0 0 
0 0 0 0 0 0 0 0 0 
0 0 0 0 0 0 0 0 0 
0 0 0 0 0 0 0 0 0 
0 0 0 0 0 0 0 0 0 
0 0 0 0 0 0 0 0 0 
0 0 0 0 0 0 0 0 0 
0 0 0 0 0 0 0 0 0 
0 0 0 0 0 0 0 0 0 
0 0 0 0 0 0 0 0 0 
0 0 0 0 0 0 0 0 0 
0 0 0 0 0 0 0 0 0 
0 0 0 0 0 0 0 0 0 
0 0 0 0 0 0 0 0 0 
0 0 0 0 0 0 0 0 0 
0 0 0 0 0 0 0 0 0 
0 0 0 0 0 0 0 0 0 
0 0 0 0 0 0 0 0 0 
0 0 0 0 0 0 0 0 0 
0 0 0 0 0 0 0 0 0 
0 0 0 0 0 0 0 0 0 
0 0 0 0 0 0 0 0 0 
0 0 0 0 0 0 0 0 0 
0 0 0 0 0 0 0 0 0 
0 0 0 0 0 0 0 0 0 
0 0 0 0 0 0 0 0 0 
0 0 0 0 0 0 0 0 0 
0 0 0 0 0 0 0 0 0 
0 0 0 0 0 0 0 0 0 
0 0 0 0 0 0 0 0 0 
0 0 0 0 0 0 0 0 0 
0 0 0 0 0 0 0 0 0 
0 0 0 0 0 0 0 0 0 
0 0 0 0 0 0 0 0 0 
0 0 0 0 0 0 0 0 0 
0 0 0 0 0 0 0 0 0 
0 0 0 0 0 0 0 0 0 
0 0 0 0 0 0 0 0 0 
0 0 0 0 0 0 0 0 0 
0 0 0 0 0 0 0 0 0 
0 0 0 0 0 0 0 0 0 
0 0 0 0 0 0 0 0 0 
0 0 0 0 0 0 0 0 0 
0 0 0 0 0 0 0 0 0 
0 0 0 0 0 0 0 0 0 
0 0 0 0 0 0 0 0 0 
0 0 0 0 0 0 0 0 0 
0 0 0 0 0 0 0 0 0 
0 0 0 0 0 0 0 0 0 
0 0 0 0 0 0 0 0 0 
0 0 0 0 0 0 0 0 0 
0 0 0 0 0 0 0 0 0 
0 0 0 0 0 0 0 0 0 
0 0 0 0 0 0 0 0 0 
0 0 0 0 0 0 0 0 0 
0 0 0 0 0 0 0 0 0 
0 0 0 0 0 0 0 0 0 
0 0 0 0 0 0 0 0 0 
0 0 0 0 0 0 0 0 0 
0 0 0 0 0 0 0 0 0 
0 0 0 0 0 0 0 0 0 
0 0 0 0 0 0 0 0 0 
0 0 0 
v 3 883 double
0.0080156891962 -0.0015029605931 0.004447886628 0.010048934566 -0.00070430313784 0.0034683114765 -0.015970077835 0.15166809512 0.0078683031147 
0.0084999301845 0.1323890659 0.0081926522313 -0.13317801248 0.16221021249 0.0070055395523 0.0041098429884 0.30328549985 0.0085481915591 
0.0046274359853 0.008066801115 -0.0032981339191 -0.0056303209371 0.0085283445581 0.016039859049 -0.027173646627 0.011902077028 0.021408443641 
-0.067016782723 0.05887268572 -0.088471391057 -0.19048707261 0.037453699347 -0.044591951551 0.0086390268809 0.038845535794 -0.0015567670795 
0.019798951085 0.040401127349 0.0076420378047 -0.078830096885 0.05744859893 0.00019912973901 -0.073359751146 0.048740936439 0.033533506534 
0.00042695319134 0.13846042764 0.029105660503 0.088754276994 0.22662720955 0.01755179333 -0.015825932323 -0.0093599622889 0.054880867859 
-0.021953360345 0.025884201396 0.04599242959 -0.027682094838 0.035560805087 0.07204171858 -0.040956546694 0.26237529859 -0.077021290032 
0.012445841211 0.010247161759 0.022377678425 -0.055110835015 0.016838623604 0.044337729087 -0.18057624424 -0.049283336929 -0.078130502795 
0.012718550083 0.067616469755 0.01425317236 0.096087284017 0.12261288527 -0.004294039915 -0.097613623005 0.14261836488 -0.069878233524 
-0.023837693753 0.013424326694 0.030482934101 -0.052806535397 0.024323413529 0.073682984456 -0.024108631974 0.052866387327 -0.0092589620461 
-0.067244853967 0.04522047833 -0.011281584556 -0.046543241901 0.073906791384 0.057776194531 -0.005644904192 0.11634111591 0.004857108426 
-0.031250205073 0.21919385107 0.082559184695 -0.00066328633309 0.27334262606 0.093316999735 -0.0096575554909 0.27005267014 0.0080604148417 
0.017418324533 0.057616216922 -0.030352324845 0.010421709988 0.032597662155 0.089304931032 0.035121297983 0.12847363527 0.096812815135 
-0.02568388976 0.17898130461 0.043235618101 0.049970442685 -0.065324642116 0.045880628903 -0.013011560337 0.21057775716 -0.067361238852 
-0.00010155981897 0.4026845298 0.00010091191765 -0.19555073313 0.025642988905 -0.073980851181 -0.29508440245 -0.071096543414 -0.22995170811 
0.17906924697 0.04465336239 0.12954131523 8.7304082862e-05 0.05658216547 0.0490846904 -0.0032792434209 0.15987574977 -0.11366743156 
0.084560273476 0.0049494460269 0.023097140815 -0.051741169069 0.04058371722 -0.053836692909 0 0.39875905054 0 
-0.1093329276 0.013073293453 -0.054392005946 -0.10514529648 0.01736526256 0.032910920883 -0.023683525094 0.038479039595 0.077669425022 
-0.041178332009 0.14957725344 0.14796284926 0.0073616794846 0.22860097262 0.0056379145434 0.015727314557 0.021455075493 -0.0024677751594 
0.095677381331 0.0044200649861 -0.086041273012 -0.0039167831326 0.051254836739 -0.001557137884 0.12805066387 0.097112908791 0.070525714734 
0.011388376557 0.041364487349 -0.11565082641 0.042602169189 0.089323789222 -0.065956124659 0.088817694295 0.1124998154 -0.053149249242 
-0.081077584478 0.27179021998 -0.19453844851 0.21273066105 0.083784470045 0.0040210919325 0.0720265258 0.092481050782 0.10567728676 
0.13721431181 0.10181133851 -0.021435361436 -0.035862658324 0.090291244517 0.064308977049 -0.016476201133 0.099454444818 -0.084306564822 
-0.011140416409 0.097767829241 -0.12921837017 0.1287683514 0.19121853907 0.11076579337 0.086954209449 0.2526704874 -0.16366621469 
0.021593665187 0.0095357454859 0.083271952659 0.1362875538 0.039257522085 -0.0091534098264 0.031590655792 0.043572963739 -0.02529784089 
0.068650783752 0.018026213225 0.060475464125 0.10344903995 0.054815171856 -0.0038259629395 0.028538407798 0.025056636625 -0.064268107381 
0 0.38773520475 0 -0.040935584861 0.0080659946873 -0.037605969439 0.029577089408 0.051621073356 0.036709279218 
-0.05241557277 -7.6474465414e-05 -0.038101718797 0.13889610943 -0.022972110717 0.059703086428 -0.019593090008 0.057115403233 0.099738465183 
-0.033229108723 0.13146619811 -0.072439225811 -0.082935369571 0.12454513688 0.22031739751 0.0094198569489 0.15103026516 -0.022541178981 
0.048239276178 0.099225294711 0.24497616456 -0.15104217532 0.21350433729 -0.08847513098 -0.0027343479842 0.020591615742 0.016982238916 
-0.02456028625 0.011359228832 -0.0113720337 0.027032685635 0.021794619309 -0.024559164227 -0.079995245439 -0.017084149868 -0.024509996072 
-0.010215913331 0.035447076697 0.029717211007 0.014928890544 0.04441030584 -0.041816267398 -0.047772226234 0.0132061549 0.03151757883 
0.080529813377 0.0057628936695 0.0071294393731 0.0050133738183 0.03415893043 0.0051985059679 -0.0096028627141 0.01633234848 0.054694933923 
-0.0019492195281 0.06894765178 0.027024499287 0.049403257311 0.043097090476 -0.013412633032 0.017297158063 0.051523199259 0.034196204277 
-0.0061600299512 0.11429591419 0.13432692073 -0.029513261594 0.16173266479 0.02841832475 0.058714015235 0.0017270508604 -0.0052240249124 
-0.029110559063 0.018207847277 -0.076876075613 -0.0039913111495 0.045910097796 0.029473773607 0.058087612515 0.020893658911 0.057573748421 
0.043123495637 0.038606691854 0.058239888712 -0.093883439559 0.14252171153 0.082969879669 0.067777486143 0.0035590079529 0.087528334108 
-0.021958819501 0.054191597684 0.048298013441 -0.19451755495 0.039668183639 -0.064885900376 0.024759942221 0.078324211804 0.044473428344 
-0.00052740355422 0.38710693906 -0.0011288573072 0.045861773211 0.010416166083 0.066043061475 -0.046054797591 0.035397971386 0.092164701031 
0.040692486761 0.040028993819 0.016705036457 -0.028734807798 0.24194419456 -0.0010331898798 -0.0033120346244 0.036987221945 0.014520019751 
-0.01446684177 0.032878853391 -0.0024533046815 -0.0016610994383 0.29654940525 0.0087496036546 -0.055878085168 0.018552676409 0.077319089015 
0.0058662362083 -0.0047575354982 0.1205492242 0.13707801014 0.10385176188 0.11392848556 0.012190777852 0.32929773123 0.012633784709 
0.015763933914 0.0065948336356 0.094849352011 0.021557993965 0.0033648425129 0.078175290305 0.048689639876 0.084903789202 0.047570047855 
-0.018697854525 0.19836571032 0.034234384001 0.048787878444 0.025521855283 0.10157198777 -0.057155117734 -0.084291479205 0.071140880261 
-0.012212897362 0.075823784745 -0.18361467497 -0.076416026534 0.17725342488 -0.024615689046 0.047994318171 0.039418765254 0.071322416347 
0.031131950044 0.032706997154 0.10031977015 -0.05154172184 0.10765359284 0.035977243928 -0.13645977946 0.12244416595 0.087249181893 
0.044804293718 0.32049728826 -0.0062287931832 -0.00044574958215 0.029243049089 0.10201140501 -0.14684183204 0.0079436499743 -0.079768840288 
0.08060329694 0.0325350987 0.01274380369 0.02788474043 0.28696644967 0.023991187628 -0.0033082998542 0.13377592098 -0.0033247496929 
0.033991363402 0.19247764267 -0.017820487125 0.0012503121485 0.38702661056 -0.005926866043 0.10242992302 0.085288386905 0.0090130720863 
0.084445824934 -0.027829691904 0.02430493986 -0.018673129003 0.22509155007 0.014510142177 0.028403815221 0.2868181363 -0.031748148619 
-0.027854144337 0.28697568113 0.02347240768 0 0.3987994427 6.9043932791e-06 0.042256730961 0.27150018908 0.1254322865 
-0.00032362647397 0.39932044177 -0.0012764948875 -0.027335661828 0.28682736673 -0.032266928106 0.0029908071981 0.23661087759 -0.014510026365 
-0.077949132161 0.1640541936 -0.025301185442 0.086053560792 0.32893311383 -0.0017445639745 0.020188320678 0.34687093157 -0.00040929342903 
-0.027545708121 0.38422685286 0.11030070993 0.11995622452 0.011863667935 0.0047441828118 -0.066149991525 0.065765809604 -0.020818425339 
-0.019718467175 0.29448520505 0.12092734083 -0.22880268682 0.26789886558 -0.019808350501 -0.078040903224 0.012317233288 -0.0024669848271 
0.13835760544 0.04733325279 -0.0010310392601 -0.057336234664 0.064076704248 -0.023730783112 -0.027869684498 0.52493743596 -0.027869684498 
-0.027869684498 0.52493743596 0.027869684498 -0.027869684498 0.29506504605 -0.027869684498 -0.027869684498 0.29506504605 0.027869684498 
0.027869684498 0.52493743596 0.027869684498 0.027869684498 0.52493743596 -0.027869684498 0.027869684498 0.29506504605 0.027869684498 