# vtk DataFile Version 5.1
Generated by LIGGGHTS
ASCII
DATASET POLYDATA
POINTS 582 float
-0.138446 0.0563263 -0.144767 -0.142076 0.0696435 -0.1441 -0.0992694 0.0890647 -0.143446 
-0.0739009 0.0992235 -0.143301 -0.113106 0.101243 -0.143582 -0.0497812 0.145657 -0.143458 
-0.11782 0.0567873 -0.140543 -0.0726755 0.057692 -0.13972 -0.0231971 0.0950473 -0.136054 
-0.144476 0.0590291 -0.135018 -0.114676 0.0605105 -0.128068 -0.134301 0.063977 -0.132978 
-0.045282 0.0663063 -0.129716 -0.00534783 0.0643433 -0.133601 -0.0485373 0.0766957 -0.13312 
-0.0712785 0.0790428 -0.132344 -0.0141859 0.124317 -0.133103 -0.127336 0.178934 -0.131567 
-0.128548 0.0613414 -0.123501 -0.0802406 0.057029 -0.122402 -0.0373322 0.0743883 -0.120196 
-0.136339 0.0798083 -0.125702 -0.0687539 0.141746 -0.121963 -0.141493 0.0563497 -0.118163 
-0.119377 0.0618513 -0.115311 -0.119584 0.0796792 -0.117665 -0.0943288 0.0839097 -0.117448 
-0.0116903 0.0868436 -0.115764 -0.108955 0.115498 -0.113979 -0.0234904 0.143918 -0.116158 
-0.0205102 0.0578517 -0.107649 -0.031021 0.067441 -0.109326 -0.0813384 0.100305 -0.111411 
-0.00141949 0.0967773 -0.110016 -0.107186 0.104282 -0.110942 -0.0831104 0.170102 -0.109983 
-0.063566 0.0682868 -0.0976969 -0.107082 0.0833862 -0.102872 -0.0480838 0.0949364 -0.100622 
-0.0376925 0.198369 -0.103091 -0.0558461 0.0676183 -0.0905419 -0.00737372 0.0708182 -0.0967597 
-0.0641285 0.107791 -0.0964987 -0.0672455 0.0669329 -0.083981 -0.054725 0.0835071 -0.083905 
-0.0689943 0.167598 -0.0869768 -0.0862438 0.19097 -0.0889079 -0.135273 0.0755802 -0.0760078 
-0.0426821 0.0851569 -0.081257 -0.0348725 0.0566206 -0.0677275 -0.114648 0.0643772 -0.0675262 
-0.0259776 0.0684975 -0.0689893 -0.00724512 0.0634695 -0.0728419 -0.0741921 0.084691 -0.0704874 
-0.0407385 0.104385 -0.0723331 -0.0848825 0.169243 -0.0727564 -0.063709 0.193671 -0.0724135 
-0.101417 0.0583249 -0.06303 -0.0684648 0.0766939 -0.0666838 -0.11575 0.133361 -0.0608764 
-0.0739915 0.0643148 -0.0531789 -0.0748773 0.0554979 -0.0472538 -0.00797554 0.066 -0.0454824 
-0.0578627 0.0795832 -0.0450425 -0.0807542 0.199023 -0.0474733 -0.0456211 0.0555556 -0.0402617 
-0.116542 0.075753 -0.0432435 -0.100462 0.0744642 -0.0369883 -0.00923062 0.0825355 -0.0376839 
-0.140478 0.0871777 -0.042196 -0.0317442 0.0962061 -0.0426636 -0.0173464 0.118823 -0.0383167 
-0.114039 0.0560593 -0.0343114 -0.04034 0.0860211 -0.0335226 -0.0201091 0.153573 -0.0341774 
-0.104349 0.177803 -0.0326997 -0.127583 0.196722 -0.0307955 -0.0637522 0.0668167 -0.0226839 
-0.0329081 0.0818195 -0.026577 -0.091251 0.0893387 -0.0299375 -0.0635082 0.101901 -0.0257681 
-0.12457 0.113905 -0.0229172 -0.0233176 0.109295 -0.0294897 -0.141694 0.129094 -0.0262325 
-0.135623 0.0621504 -0.0166135 -0.0480017 0.0631273 -0.0186004 -0.0386657 0.0741453 -0.0219841 
-0.00491999 0.0759669 -0.0196525 -0.143209 0.103332 -0.0183838 -0.0488331 0.171671 -0.019761 
-0.109995 0.0576091 -0.0107081 -0.072361 0.0663943 -0.0136717 -0.0167764 0.0949146 -0.00889299 
-0.135078 0.106352 -0.0107672 -0.137353 0.0556435 -0.00337481 -0.0811326 0.057969 -0.00146474 
-0.0463346 0.0581292 -0.00229446 -0.11884 0.0617794 -0.00654124 -0.104823 0.0642834 -0.00254977 
-0.032143 0.137406 -0.00745555 -0.0461945 0.178581 -0.00115547 -0.0844144 0.199023 -0.0511334 
-0.0844144 0.199023 -0.0474733 -0.0807542 0.199023 -0.0511334 -0.120369 0.064895 0.00549602 
-0.109664 0.0697401 0.00483995 -0.100281 0.0591191 0.0088084 -0.0459478 0.0556003 0.0132534 
-0.143927 0.0620639 0.0136953 -0.133081 0.0629697 0.00824922 -0.130583 0.0703631 0.0147937 
-0.0718506 0.0984464 0.00881467 -0.0298188 0.0677008 0.0170377 -0.111344 0.0756902 0.0175415 
-0.0406085 0.0735975 0.0225233 -0.093558 0.106278 0.0188823 -0.128 0.0552584 0.0245021 
-0.11918 0.0700917 0.0234734 -0.0853761 0.0699104 0.0291554 -0.0252726 0.0704264 0.027912 
-0.000142167 0.0734624 0.0301768 -0.117297 0.104372 0.0240385 -0.0870946 0.185401 0.0242565 
-0.0469251 0.0576987 0.03374 -0.0193783 0.0582606 0.0334757 -0.00648633 0.0553283 0.0312667 
-0.101962 0.0642171 0.0353368 -0.0428832 0.073738 0.035143 -0.129707 0.0842188 0.0340684 
-0.0427496 0.159497 0.036446 -0.102817 0.187107 0.0341755 -0.085578 0.0996971 0.144753 
-0.0905278 0.0858278 0.142577 -0.065704 0.0626848 0.0432201 -0.131598 0.124221 0.0435959 
-0.0110862 0.0675503 0.144938 -0.0986274 0.0567154 0.143048 -0.128843 0.0609583 0.0517773 
-0.0759664 0.0618121 0.0473918 -0.0350959 0.0620238 0.0500173 -0.136044 0.0694443 0.0461256 
-0.0105854 0.0945908 0.0461083 -0.0899234 0.174442 0.0475204 -0.099042 0.19189 0.0493364 
-0.0871134 0.0567747 0.0557081 -0.14027 0.0693432 0.0557318 -0.0171964 0.0701493 0.0586073 
-0.110712 0.158145 0.0591819 -0.0401407 0.194308 0.0590509 -0.133178 0.0585615 0.0622587 
-0.00625724 0.0591822 0.0678774 -0.0718966 0.114163 0.0652974 -0.134862 0.0603026 0.0748957 
-0.119438 0.088138 0.0727361 -0.106661 0.0936965 0.0708819 -0.0279224 0.11266 0.0723289 
-0.0484181 0.0648214 0.079465 -0.00186222 0.0849499 0.0787301 -0.0826009 0.150578 0.0772081 
-0.0260893 0.200005 0.0814536 -0.00806681 0.0616069 0.0883542 -0.0383152 0.0750435 0.085083 
-0.134009 0.105653 0.0870045 -0.0418676 0.174678 0.0868742 -0.111741 0.181524 0.089553 
-0.141346 0.198201 0.0840536 -0.0169162 0.181611 0.0973861 -0.0297307 0.110795 0.100398 
-0.120855 0.172069 0.0990475 -0.0304433 0.184993 0.0996868 -0.140335 0.193914 0.104457 
-0.0475368 0.155365 0.144387 -0.0363578 0.0668237 0.107478 -0.0588674 0.122581 0.105517 
-0.0288936 0.059599 0.117413 -0.0620957 0.116116 0.115039 -0.0500375 0.138128 0.118969 
-0.109689 0.172665 0.113557 -0.0414359 0.182417 0.115418 -0.029672 0.186854 0.113009 
-0.0502984 0.165831 0.123 -0.13195 0.177205 0.121505 -0.0732363 0.173337 0.122912 
-0.0782063 0.116174 0.133396 -0.077955 0.145046 0.129583 -0.089788 0.155809 0.129839 
-0.120116 0.156916 0.130454 -0.132984 0.0688533 0.140684 -0.123413 0.177345 0.140729 
-0.111934 0.239006 -0.10619 -0.102701 0.239014 -0.10619 -0.111945 0.264988 -0.106251 
-0.102712 0.264995 -0.106251 -0.111934 0.239049 -0.0969568 -0.102701 0.239056 -0.096957 
-0.111945 0.26503 -0.0970186 -0.102712 0.265038 -0.0970185 -0.0539712 0.210486 -0.0868303 
-0.0481307 0.210486 -0.0868303 -0.0539712 0.222478 -0.0868321 -0.0481307 0.222478 -0.0868321 
-0.0539712 0.210488 -0.0809896 -0.0481307 0.210488 -0.0809896 -0.0539712 0.222479 -0.0809917 
-0.0481307 0.222479 -0.0809917 -0.112696 0.208002 -0.0684415 -0.11272 0.208001 -0.0736834 
-0.117937 0.208002 -0.0684168 -0.117962 0.208 -0.0736587 -0.112696 0.217525 -0.0684438 
-0.112721 0.217523 -0.0736857 -0.117938 0.217524 -0.0684191 -0.117963 0.217523 -0.0736609 
-0.0168395 0.208684 -0.0606683 -0.016826 0.208672 -0.0661097 -0.0222674 0.208688 -0.0661232 
-0.0222809 0.2087 -0.0606818 -0.0168023 0.219017 -0.0661272 -0.0168158 0.219029 -0.0606858 
-0.0222437 0.219034 -0.0661407 -0.0222572 0.219046 -0.0606993 -0.00989039 0.205689 -0.0556259 
-0.0147332 0.205689 -0.0556331 -0.0561822 0.214062 -0.052734 -0.0497431 0.214062 -0.052734 
-0.00989101 0.213566 -0.0556292 -0.0147338 0.213566 -0.0556364 -0.0561822 0.228523 -0.052734 
-0.0497431 0.228523 -0.052734 -0.00989757 0.205692 -0.0507831 -0.0147404 0.205691 -0.0507903 
-0.0561822 0.214062 -0.0462948 -0.0497431 0.214062 -0.0462948 -0.014741 0.213568 -0.0507935 
-0.00989818 0.213569 -0.0507864 -0.0561822 0.228523 -0.0462948 -0.0497431 0.228523 -0.0462948 
-0.0197473 0.207782 -0.00915386 -0.0199773 0.207739 -0.0141241 -0.0147354 0.207744 -0.0140887 
-0.0147708 0.207746 -0.0088468 -0.0197755 0.217311 -0.00913523 -0.0199838 0.217262 -0.0141272 
-0.0147773 0.217269 -0.00885001 -0.014742 0.217267 -0.0140919 -0.0231621 0.207192 -0.00555153 
-0.0228967 0.207233 -0.000581331 -0.0281386 0.207233 -0.00058133 -0.0281386 0.207233 -0.00582323 
-0.0281381 0.216456 -0.00582375 -0.0281381 0.216456 -0.000581854 -0.0228962 0.216456 -0.000581851 
-0.0231399 0.216409 -0.00557389 -0.0807542 0.202683 -0.0474733 -0.0807542 0.202683 -0.0511334 
-0.0844144 0.202683 -0.0511334 -0.0844144 0.202683 -0.0474733 -0.0681005 0.20592 0.0357503 
-0.0640559 0.20592 0.0357503 -0.0240514 0.259066 0.0302423 -0.0146199 0.25843 0.0303562 
-0.0234575 0.268498 0.0306716 -0.0140259 0.267862 0.0307855 -0.0681005 0.20592 0.039795 
-0.0640559 0.20592 0.039795 -0.0241827 0.258541 0.0396741 -0.0147512 0.257905 0.039788 
-0.0235888 0.267973 0.0401033 -0.0141572 0.267337 0.0402172 -0.0545772 0.211202 0.0584077 
-0.0485371 0.211202 0.0584081 -0.0545772 0.223547 0.0584166 -0.0485371 0.223546 0.0584169 
-0.0984917 0.270475 0.0539004 -0.0858359 0.270477 0.0539005 -0.0984946 0.315137 0.0539071 
-0.0858387 0.315139 0.0539072 -0.109089 0.204809 0.0598093 -0.109089 0.204809 0.0644526 
-0.104446 0.204809 0.0644526 -0.104446 0.204809 0.0598093 -0.109089 0.211863 0.0598093 
-0.109089 0.211863 0.0644526 -0.104446 0.211863 0.0644526 -0.104446 0.211863 0.0598093 
-0.0545776 0.211199 0.0644404 -0.0485374 0.211196 0.064448 -0.0545775 0.22354 0.0644567 
-0.0485374 0.22354 0.064457 -0.0984918 0.270471 0.0665562 -0.0858361 0.270473 0.0665563 
-0.0984947 0.315133 0.0665629 -0.0858389 0.315135 0.066563 -0.14212 0.20666 0.0734196 
-0.142112 0.20666 0.0683773 -0.137077 0.206659 0.0734272 -0.13707 0.20666 0.0683849 
-0.131406 0.208428 0.0725411 -0.131407 0.20302 0.0725397 -0.127162 0.208427 0.0725324 
-0.127163 0.203019 0.072531 -0.0544993 0.208029 0.0682532 -0.0544997 0.208026 0.073687 
-0.0490582 0.208027 0.0736873 -0.0490579 0.208031 0.068246 -0.137077 0.215359 0.0734275 
-0.137069 0.215359 0.0683852 -0.142112 0.21536 0.0683776 -0.142119 0.21536 0.0734199 
-0.0544995 0.218035 0.0682522 -0.0544998 0.21803 0.0736936 -0.0490583 0.21803 0.0736939 
-0.049058 0.218035 0.0682525 -0.131397 0.208427 0.0767853 -0.131399 0.203019 0.0767838 
-0.122819 0.20632 0.0811043 -0.127153 0.208426 0.0767766 -0.127155 0.203018 0.0767752 
-0.117777 0.206321 0.0811043 -0.122819 0.21502 0.0811043 -0.117777 0.21502 0.0811043 
-0.122819 0.20632 0.0861466 -0.117777 0.206321 0.0861466 -0.122819 0.21502 0.0861466 
[...]
POINT_DATA 582
FIELD FieldData 8
id 1 582 int
3781 3801 3994 3744 3970 3884 3745 2648 3937 
3894 2755 2739 2901 3730 3749 3917 3726 3907 
3785 3931 3296 3823 3802 3024 3586 3023 3981 
3773 3987 3959 3844 3852 3180 3858 3359 3403 
3685 3908 3903 3734 3960 3943 3830 3757 3808 
3976 3824 3716 3242 3731 3727 3877 3966 3932 
3873 3949 3767 3360 3738 3243 3814 3918 2962 
3758 4199 3961 3135 2961 2749 3896 3809 3774 
3853 2824 3519 3878 3759 3786 3995 3939 3686 
2823 3244 3951 3297 3919 3787 2482 3920 3895 
3885 3938 3879 3815 3925 3746 3975 3182 3971 
3953 3845 4194 4195 4198 2902 3831 3720 3962 
3688 3982 3825 3996 3782 3950 3940 3988 3836 
3803 3775 3587 3835 3909 3794 3747 3847 3810 
3631 3906 3955 3989 3783 3956 3875 3788 3728 
3848 3689 3760 3911 3406 3854 3846 2826 3769 
3768 3864 3461 3859 3795 3863 3871 3761 3721 
3941 3910 3765 3136 3325 3904 3588 2550 3954 
3776 3898 3865 3736 3817 2509 3886 2649 3804 
3690 3754 3997 3977 3963 3874 3933 3866 3855 
3984 3887 3880 3632 3837 3897 3921 3729 3722 
4018 4022 4020 4024 4019 4023 4021 4017 4042 
4046 4044 4048 4043 4047 4045 4041 4089 4088 
4085 4084 4091 4090 4087 4086 4063 4062 4058 
4059 4064 4057 4060 4061 4142 4138 4026 4030 
4144 4140 4028 4032 4143 4139 4027 4031 4141 
4137 4029 4025 4093 4092 4096 4075 4095 4094 
4073 4074 4080 4081 4077 4076 4078 4079 4083 
4082 4193 4200 4196 4197 4164 4168 4010 4014 
4012 4016 4165 4161 4011 4015 4013 4009 4034 
4038 4036 4040 4002 4006 4004 4008 4146 4147 
4151 4150 4148 4149 4145 4152 4035 4039 4037 
4033 4003 4007 4005 4001 4116 4115 4120 4119 
4156 4154 4160 4158 4066 4067 4071 4070 4122 
4121 4117 4118 4068 4069 4065 4072 4157 4155 
4123 4153 4159 4127 4125 4114 4124 4128 4126 
4113 4162 4184 4166 4163 4181 4180 4167 4177 
4183 4182 4179 4178 3899 3849 3161 3927 3876 
3905 3942 3818 3934 3811 3900 3952 3789 3957 
3972 3964 3838 3762 3860 3440 3741 3717 3978 
2927 3784 3965 2989 3945 3922 3025 3944 3405 
3755 3867 3985 3796 3888 2591 3856 3711 2867 
3666 3839 3819 2481 3778 3868 3665 3869 3441 
3826 3737 3766 3812 3208 3712 3805 2748 3889 
3770 3162 3840 3881 3691 3386 3832 3806 3850 
3797 3891 3262 3841 3827 3813 3777 2483 3793 
3324 3851 3723 2751 3929 3928 3842 4207 3614 
2750 3973 3890 3763 3946 3771 3915 3990 3991 
3999 3714 3385 3914 3442 3613 3882 3912 3779 
3791 3923 3870 3913 4202 4203 4206 3764 2690 
3732 3263 3901 3742 3718 3820 2790 3828 3084 
3692 2963 3668 3979 3974 3667 2484 3986 3916 
3790 3998 3993 3924 3799 3518 2928 3947 3750 
3756 3807 3739 3715 3719 3892 3821 3298 3751 
4000 3834 3862 3893 3861 3926 3833 2752 3752 
3772 3958 3857 3443 3843 3968 3798 3780 3829 
3326 3733 3983 3822 3930 2868 3872 3800 3980 
3992 3935 3753 3792 2753 3725 3743 3694 3948 
3693 3936 3967 3902 3969 2990 3883 3444 4201 
4208 4204 4205 4099 4103 4101 4105 4100 4104 
4102 4106 4131 4130 4135 4134 4133 4132 4136 
4129 4172 4176 4173 4169 4111 4107 4055 4050 
4054 4051 4098 4109 4049 4056 4052 4053 4108 
4112 4097 4110 4185 4192 4170 4174 4189 4188 
4171 4175 4191 4190 4187 4186 
type 1 582 int
2 2 2 2 2 2 2 2 2 
2 2 2 2 2 2 2 2 2 
2 2 2 2 2 2 2 2 2 
2 2 2 2 2 2 2 2 2 
2 2 2 2 2 2 2 2 2 
2 2 2 2 2 2 2 2 2 
2 2 2 2 2 2 2 2 2 
2 2 2 2 2 2 2 2 2 
2 2 2 2 2 2 2 2 2 
2 2 2 2 2 2 2 2 2 
2 2 2 2 2 2 2 2 2 
2 2 2 2 2 2 2 2 2 
2 2 2 2 2 2 2 2 2 
2 2 2 2 2 2 2 2 2 
2 2 2 2 2 2 2 2 2 
2 2 2 2 2 2 2 2 2 
2 2 2 2 2 2 2 2 2 
2 2 2 2 2 2 2 2 2 
2 2 2 2 2 2 2 2 2 
2 2 2 2 2 2 2 2 2 
2 2 2 2 2 2 2 2 2 
2 2 2 2 2 2 2 2 2 
2 2 2 2 2 2 2 2 2 
2 2 2 2 2 2 2 2 2 
2 2 2 2 2 2 2 2 2 
2 2 2 2 2 2 2 2 2 
2 2 2 2 2 2 2 2 2 
2 2 2 2 2 2 2 2 2 
2 2 2 2 2 2 2 2 2 
2 2 2 2 2 2 2 2 2 
2 2 2 2 2 2 2 2 2 
2 2 2 2 2 2 2 2 2 
2 2 2 2 2 2 2 2 2 
2 2 2 2 2 2 2 2 2 
2 2 2 2 2 2 2 2 2 
2 2 2 2 2 2 2 2 2 
2 2 2 2 2 2 2 2 2 
2 2 2 2 2 2 2 2 2 
2 2 2 2 2 2 2 2 2 
2 2 2 2 2 2 2 2 2 
2 2 2 2 2 2 2 2 2 
2 2 2 2 2 2 2 2 2 
2 2 2 2 2 2 2 2 2 
2 2 2 2 2 2 2 2 2 
2 2 2 2 2 2 2 2 2 
2 2 2 2 2 2 2 2 2 
2 2 2 2 2 2 2 2 2 
2 2 2 2 2 2 2 2 2 
2 2 2 2 2 2 2 2 2 
2 2 2 2 2 2 2 2 2 
2 2 2 2 2 2 2 2 2 
2 2 2 2 2 2 2 2 2 
2 2 2 2 2 2 2 2 2 
2 2 2 2 2 2 2 2 2 
2 2 2 2 2 2 2 2 2 
2 2 2 2 2 2 2 2 2 
2 2 2 2 2 2 2 2 2 
2 2 2 2 2 2 2 2 2 
2 2 2 2 2 2 2 2 2 
2 2 2 2 2 2 2 2 2 
2 2 2 2 2 2 2 2 2 
2 2 2 2 2 2 2 2 2 
2 2 2 2 2 2 2 2 2 
2 2 2 2 2 2 2 2 2 
2 2 2 2 2 2 
i 3 582 int
0 0 0 0 0 0 0 0 0 
0 0 0 0 0 0 0 0 0 
0 0 0 0 0 0 0 0 0 
0 0 0 0 0 0 0 0 0 
0 0 0 0 0 0 0 0 0 
0 0 0 0 0 0 0 0 0 
0 0 0 0 0 0 0 0 0 
0 0 0 0 0 0 0 0 0 
0 0 0 0 0 0 0 0 0 
0 0 0 0 0 0 0 0 0 
0 0 0 0 0 0 0 0 0 
0 0 0 0 0 0 0 0 0 
0 0 0 0 0 0 0 0 0 
0 0 0 0 0 0 0 0 0 
0 0 0 0 0 0 0 0 0 
0 0 0 0 0 0 0 0 0 
0 0 0 0 0 0 0 0 0 
0 0 0 0 0 0 0 0 0 
0 0 0 0 0 0 0 0 0 
0 0 0 0 0 0 0 0 0 
0 0 0 0 0 0 0 0 0 
0 0 0 0 0 0 0 0 0 
0 0 0 0 0 0 0 0 0 
0 0 0 0 0 0 0 0 0 
0 0 0 0 0 0 0 0 0 
0 0 0 0 0 0 0 0 0 
0 0 0 0 0 0 0 0 0 
0 0 0 0 0 0 0 0 0 
0 0 0 0 0 0 0 0 0 
0 0 0 0 0 0 0 0 0 
0 0 0 0 0 0 0 0 0 
0 0 0 0 0 0 0 0 0 
0 0 0 0 0 0 0 0 0 
0 0 0 0 0 0 0 0 0 
0 0 0 0 0 0 0 0 0 
0 0 0 0 0 0 0 0 0 
0 0 0 0 0 0 0 0 0 
0 0 0 0 0 0 0 0 0 
0 0 0 0 0 0 0 0 0 
0 0 0 0 0 0 0 0 0 
0 0 0 0 0 0 0 0 0 
0 0 0 0 0 0 0 0 0 
0 0 0 0 0 0 0 0 0 
0 0 0 0 0 0 0 0 0 
0 0 0 0 0 0 0 0 0 
0 0 0 0 0 0 0 0 0 
0 0 0 0 0 0 0 0 0 
0 0 0 0 0 0 0 0 0 
0 0 0 0 0 0 0 0 0 
0 0 0 0 0 0 0 0 0 
0 0 0 0 0 0 0 0 0 
0 0 0 0 0 0 0 0 0 
0 0 0 0 0 0 0 0 0 
0 0 0 0 0 0 0 0 0 
0 0 0 0 0 0 0 0 0 
0 0 0 0 0 0 0 0 0 
0 0 0 0 0 0 0 0 0 
0 0 0 0 0 0 0 0 0 
0 0 0 0 0 0 0 0 0 
0 0 0 0 0 0 0 0 0 
0 0 0 0 0 0 0 0 0 
0 0 0 0 0 0 0 0 0 
0 0 0 0 0 0 0 0 0 
0 0 0 0 0 0 0 0 0 
0 0 0 0 0 0 0 0 0 
0 0 0 0 0 0 0 0 0 
0 0 0 0 0 0 0 0 0 
0 0 0 0 0 0 0 0 0 
0 0 0 0 0 0 0 0 0 
0 0 0 0 0 0 0 0 0 
0 0 0 0 0 0 0 0 0 
0 0 0 0 0 0 0 0 0 
0 0 0 0 0 0 0 0 0 
0 0 0 0 0 0 0 0 0 
0 0 0 0 0 0 0 0 0 
0 0 0 0 0 0 0 0 0 
0 0 0 0 0 0 0 0 0 
0 0 0 0 0 0 0 0 0 
0 0 0 0 0 0 0 0 0 
0 0 0 0 0 0 0 0 0 
0 0 0 0 0 0 0 0 0 
0 0 0 0 0 0 0 0 0 
0 0 0 0 0 0 0 0 0 
0 0 0 0 0 0 0 0 0 
0 0 0 0 0 0 0 0 0 
0 0 0 0 0 0 0 0 0 
0 0 0 0 0 0 0 0 0 
0 0 0 0 0 0 0 0 0 
0 0 0 0 0 0 0 0 0 
0 0 0 0 0 0 0 0 0 
0 0 0 0 0 0 0 0 0 
0 0 0 0 0 0 0 0 0 
0 0 0 0 0 0 0 0 0 
0 0 0 0 0 0 0 0 0 
0 0 0 0 0 0 0 0 0 
0 0 0 0 0 0 0 0 0 
0 0 0 0 0 0 0 0 0 
0 0 0 0 0 0 0 0 0 
0 0 0 0 0 0 0 0 0 
0 0 0 0 0 0 0 0 0 
0 0 0 0 0 0 0 0 0 
0 0 0 0 0 0 0 0 0 
0 0 0 0 0 0 0 0 0 
0 0 0 0 0 0 0 0 0 
0 0 0 0 0 0 0 0 0 
0 0 0 0 0 0 0 0 0 
0 0 0 0 0 0 0 0 0 
0 0 0 0 0 0 0 0 0 
0 0 0 0 0 0 0 0 0 
0 0 0 0 0 0 0 0 0 
0 0 0 0 0 0 0 0 0 
0 0 0 0 0 0 0 0 0 
0 0 0 0 0 0 0 0 0 
0 0 0 0 0 0 0 0 0 
0 0 0 0 0 0 0 0 0 
0 0 0 0 0 0 0 0 0 
0 0 0 0 0 0 0 0 0 
0 0 0 0 0 0 0 0 0 
0 0 0 0 0 0 0 0 0 
0 0 0 0 0 0 0 0 0 
0 0 0 0 0 0 0 0 0 
0 0 0 0 0 0 0 0 0 
0 0 0 0 0 0 0 0 0 
0 0 0 0 0 0 0 0 0 
0 0 0 0 0 0 0 0 0 
0 0 0 0 0 0 0 0 0 
0 0 0 0 0 0 0 0 0 
0 0 0 0 0 0 0 0 0 
0 0 0 0 0 0 0 0 0 
0 0 0 0 0 0 0 0 0 
0 0 0 0 0 0 0 0 0 
0 0 0 0 0 0 0 0 0 
0 0 0 0 0 0 0 0 0 
0 0 0 0 0 0 0 0 0 
0 0 0 0 0 0 0 0 0 
0 0 0 0 0 0 0 0 0 
0 0 0 0 0 0 0 0 0 
0 0 0 0 0 0 0 0 0 
0 0 0 0 0 0 0 0 0 
0 0 0 0 0 0 0 0 0 
0 0 0 0 0 0 0 0 0 
0 0 0 0 0 0 0 0 0 
0 0 0 0 0 0 0 0 0 
0 0 0 0 0 0 0 0 0 
0 0 0 0 0 0 0 0 0 
0 0 0 0 0 0 0 0 0 
0 0 0 0 0 0 0 0 0 
0 0 0 0 0 0 0 0 0 
0 0 0 0 0 0 0 0 0 
0 0 0 0 0 0 0 0 0 
0 0 0 0 0 0 0 0 0 
0 0 0 0 0 0 0 0 0 
0 0 0 0 0 0 0 0 0 
0 0 0 0 0 0 0 0 0 
0 0 0 0 0 0 0 0 0 
0 0 0 0 0 0 0 0 0 
0 0 0 0 0 0 0 0 0 
0 0 0 0 0 0 0 0 0 
0 0 0 0 0 0 0 0 0 
0 0 0 0 0 0 0 0 0 
0 0 0 0 0 0 0 0 0 
0 0 0 0 0 0 0 0 0 
0 0 0 0 0 0 0 0 0 
0 0 0 0 0 0 0 0 0 
0 0 0 0 0 0 0 0 0 
0 0 0 0 0 0 0 0 0 
0 0 0 0 0 0 0 0 0 
0 0 0 0 0 0 0 0 0 
0 0 0 0 0 0 0 0 0 
0 0 0 0 0 0 0 0 0 
0 0 0 0 0 0 0 0 0 
0 0 0 0 0 0 0 0 0 
0 0 0 0 0 0 0 0 0 
0 0 0 0 0 0 0 0 0 
0 0 0 0 0 0 0 0 0 
0 0 0 0 0 0 0 0 0 
0 0 0 0 0 0 0 0 0 
0 0 0 0 0 0 0 0 0 
0 0 0 0 0 0 0 0 0 
0 0 0 0 0 0 0 0 0 
0 0 0 0 0 0 0 0 0 
0 0 0 0 0 0 0 0 0 
0 0 0 0 0 0 0 0 0 
0 0 0 0 0 0 0 0 0 
0 0 0 0 0 0 0 0 0 
0 0 0 0 0 0 0 0 0 
0 0 0 0 0 0 0 0 0 
0 0 0 0 0 0 0 0 0 
0 0 0 0 0 0 0 0 0 
0 0 0 0 0 0 0 0 0 
0 0 0 0 0 0 0 0 0 
0 0 0 0 0 0 0 0 0 
0 0 0 0 0 0 0 0 0 
0 0 0 0 0 0 0 0 0 

v 3 582 double
0.0080156891962 -0.0015029605931 0.004447886628 0.010048934566 -0.00070430313784 0.0034683114765 -0.015970077835 0.15166809512 0.0078683031147 
0.0084999301845 0.1323890659 0.0081926522313 -0.13317801248 0.16221021249 0.0070055395523 0.0041098429884 0.30328549985 0.0085481915591 
-0.0056303209371 0.0085283445581 0.016039859049 -0.027173646627 0.011902077028 0.021408443641 0.00042695319134 0.13846042764 0.029105660503 
0.0046274359853 0.008066801115 -0.0032981339191 -0.015825932323 -0.0093599622889 0.054880867859 0.0086390268809 0.038845535794 -0.0015567670795 
0.019798951085 0.040401127349 0.0076420378047 -0.0073663242247 0.069707047504 -0.21902865838 -0.19048707261 0.037453699347 -0.044591951551 
-0.078830096885 0.05744859893 0.00019912973901 0.088754276994 0.22662720955 0.01755179333 0 0.410001241 0 
-0.021953360345 0.025884201396 0.04599242959 -0.055110835015 0.016838623604 0.044337729087 0.012718550083 0.067616469755 0.01425317236 
-0.027682094838 0.035560805087 0.07204171858 -0.040956546694 0.26237529859 -0.077021290032 0.012445841211 0.010247161759 0.022377678425 
-0.052806535397 0.024323413529 0.073682984456 -0.032235806057 0.015450186834 0.090000174597 0.096087284017 0.12261288527 -0.004294039915 
-0.046543241901 0.073906791384 0.057776194531 -0.031250205073 0.21919385107 0.082559184695 -0.00066328633309 0.27334262606 0.093316999735 
-0.023837693753 0.013424326694 0.030482934101 -0.024108631974 0.052866387327 -0.0092589620461 -0.005644904192 0.11634111591 0.004857108426 
0.0527175037 0.1461298439 -0.014994661505 -0.097613623005 0.14261836488 -0.069878233524 -0.0096575554909 0.27005267014 0.0080604148417 
0.12933529232 0.042588217061 0.051919416551 -0.21558529215 -0.019513045433 -0.17941226195 0.035121297983 0.12847363527 0.096812815135 
0 0.39896583638 0 -0.061946525106 -0.050296642255 -0.036391112494 0.010421709988 0.032597662155 0.089304931032 
-0.02568388976 0.17898130461 0.043235618101 0.17906924697 0.04465336239 0.12954131523 -0.013011560337 0.21057775716 -0.067361238852 
-0.00010155981897 0.4026845298 0.00010091191765 0 0.4099646538 0 0.084560273476 0.0049494460269 0.023097140815 
8.7304082862e-05 0.05658216547 0.0490846904 -0.10514529648 0.01736526256 0.032910920883 -0.023683525094 0.038479039595 0.077669425022 
-0.051741169069 0.04058371722 -0.053836692909 -0.19555073313 0.025642988905 -0.073980851181 0.0048568421874 0.08945452959 -0.10391745121 
-0.041178332009 0.14957725344 0.14796284926 0 0.39875905054 0 -0.004507024569 0.40045571211 -0.019038581245 
-0.1093329276 0.013073293453 -0.054392005946 -0.30322048806 -0.00067532323441 -0.23970168846 0.0073616794846 0.22860097262 0.0056379145434 
0.12805066387 0.097112908791 0.070525714734 0.016193322571 -0.053708999024 -0.0047801960681 -0.0039167831326 0.051254836739 -0.001557137884 
0.21273066105 0.083784470045 0.0040210919325 0.0016857056414 0.39316993781 -0.0030233386084 0.095677381331 0.0044200649861 -0.086041273012 
0.011388376557 0.041364487349 -0.11565082641 0.0720265258 0.092481050782 0.10567728676 -0.035862658324 0.090291244517 0.064308977049 
-0.10659233928 0.13529730026 -0.13355815864 0.088817694295 0.1124998154 -0.053149249242 0.1287683514 0.19121853907 0.11076579337 
0.021593665187 0.0095357454859 0.083271952659 0.13721431181 0.10181133851 -0.021435361436 -0.081077584478 0.27179021998 -0.19453844851 
0 0.39904491296 0 0 0.40508628054 1.1391752074e-05 0.068650783752 0.018026213225 0.060475464125 
0.1362875538 0.039257522085 -0.0091534098264 -0.016476201133 0.099454444818 -0.084306564822 -0.082935369571 0.12454513688 0.22031739751 
0.048239276178 0.099225294711 0.24497616456 -0.011140416409 0.097767829241 -0.12921837017 0.086954209449 0.2526704874 -0.16366621469 
0.029577089408 0.051621073356 0.036709279218 0.13889610943 -0.022972110717 0.059703086428 0.10344903995 0.054815171856 -0.0038259629395 
-0.019593090008 0.057115403233 0.099738465183 0.028538407798 0.025056636625 -0.064268107381 0 0.38773520475 0 
-0.040935584861 0.0080659946873 -0.037605969439 0.031590655792 0.043572963739 -0.02529784089 -0.033229108723 0.13146619811 -0.072439225811 
0.0094198569489 0.15103026516 -0.022541178981 -0.0027343479842 0.020591615742 0.016982238916 -0.02456028625 0.011359228832 -0.0113720337 
0.027032685635 0.021794619309 -0.024559164227 -0.05241557277 -7.6474465414e-05 -0.038101718797 -0.079995245439 -0.017084149868 -0.024509996072 
-0.15104217532 0.21350433729 -0.08847513098 -0.018713004647 0.38875185117 7.8913229596e-15 -0.0016857056414 0.39312345956 -0.0063914119796 
-0.0016857056414 0.39316993781 -0.0030233386084 0.0016857056414 0.39312345956 -0.0063914119796 0.047105971364 0.047126373854 0.013261584049 
-0.04239299415 0.032731008683 -0.025360640441 -0.047772226234 0.0132061549 0.03151757883 0.080529813377 0.0057628936695 0.0071294393731 
0.0050133738183 0.03415893043 0.0051985059679 -0.0021145546064 0.038207161077 0.086087109658 -0.0094375276358 0.047072839183 -0.0043676764478 
-0.0061600299512 0.11429591419 0.13432692073 0.077184004256 0.066064098953 0.077633274331 0.017297158063 0.051523199259 0.034196204277 
0.058087612515 0.020893658911 0.057573748421 -0.029513261594 0.16173266479 0.02841832475 0.058714015235 0.0017270508604 -0.0052240249124 
-0.0039913111495 0.045910097796 0.029473773607 -0.021958819501 0.054191597684 0.048298013441 0.015342748692 0.015639683378 -0.032806018651 
0.14414420127 0.070733586407 0.116579113 -0.093883439559 0.14252171153 0.082969879669 -0.0021049833578 0.38899466784 -0.000126565171 
0.045861773211 0.010416166083 0.066043061475 -0.029110559063 0.018207847277 -0.076876075613 0.073524872124 -0.0089080269211 0.085640873075 
-0.046054797591 0.035397971386 0.092164701031 -0.19451755495 0.039668183639 -0.064885900376 0.024759942221 0.078324211804 0.044473428344 
-0.00052740355422 0.38710693906 -0.0011288573072 -0.0020887119363 0.38986351732 -0.0070491576428 -0.057336234664 0.064076704248 -0.023730783112 
-0.066149991525 0.065765809604 -0.020818425339 0.040692486761 0.040028993819 0.016705036457 -0.028734807798 0.24194419456 -0.0010331898798 
0.13835760544 0.04733325279 -0.0010310392601 -0.078040903224 0.012317233288 -0.0024669848271 -0.055878085168 0.018552676409 0.077319089015 
-0.0033120346244 0.036987221945 0.014520019751 0.0058662362083 -0.0047575354982 0.1205492242 -0.065001341762 0.019554148352 0.081816480773 
0.13707801014 0.10385176188 0.11392848556 -0.0016610994383 0.29654940525 0.0087496036546 0.0020429030869 0.39521847008 -0.0010600737839 
0.015763933914 0.0065948336356 0.094849352011 0.072092493958 0.016689547551 -0.0060944951496 0.048689639876 0.084903789202 0.047570047855 
0.012190777852 0.32929773123 0.012633784709 0 0.41052549956 0 0.048787878444 0.025521855283 0.10157198777 
0.091413329724 -0.020382990837 0.10182231993 -0.018697854525 0.19836571032 0.034234384001 0.047994318171 0.039418765254 0.071322416347 
0.031131950044 0.032706997154 0.10031977015 -0.13645977946 0.12244416595 0.087249181893 -0.076416026534 0.17725342488 -0.024615689046 
-0.00044574958215 0.029243049089 0.10201140501 -0.05154172184 0.10765359284 0.035977243928 0.044804293718 0.32049728826 -0.0062287931832 
0 0.38755395842 -0.0050852537353 -0.14684183204 0.0079436499743 -0.079768840288 -0.012212897362 0.075823784745 -0.18361467497 
0.08060329694 0.0325350987 0.01274380369 0.0002814165965 0.39586236908 -0.0042450652735 -0.00036883905222 0.40129851273 -0.0077537456699 
0 0.39872827304 0 0 0.38761842277 0 -0.0033082998542 0.13377592098 -0.0033247496929 
0.0012503121485 0.38702661056 -0.005926866043 -0.0046666478446 0.28784143851 -0.0046798590522 0 0.41016565709 9.1963837408e-06 
0.003430585782 0.26858144658 0.036345321829 0.16820795446 0.029549338883 0.12446726565 0.033991363402 0.19247764267 -0.017820487125 
0.018667793496 0.027909356118 -0.091149253707 -0.018673129003 0.22509155007 0.014510142177 0.042256730961 0.27150018908 0.1254322865 
0 0.3987994427 6.9043932791e-06 0.0024336544151 0.40286253151 0.0042270621109 -0.002634341908 0.41110012695 0.0010203462189 
-0.00032362647397 0.39932044177 -0.0012764948875 0.00051441565056 0.39864167423 0.0017178022421 -0.027545708121 0.38422685286 0.11030070993 
-0.077949132161 0.1640541936 -0.025301185442 -0.019718467175 0.29448520505 0.12092734083 0.086053560792 0.32893311383 -0.0017445639745 
0.020188320678 0.34687093157 -0.00040929342903 0.11995622452 0.011863667935 0.0047441828118 -0.22880268682 0.26789886558 -0.019808350501 
-0.04125526714 0.39714501683 -0.10814853943 0.014484300369 0.39721888679 -0.10814812224 -0.041363751989 0.62701657341 -0.10876561409 
0.014375274984 0.62709110505 -0.10876690403 -0.041254969846 0.39756815431 -0.052408258422 0.01448475908 0.39764093675 -0.052409461063 
-0.041363410614 0.62743684168 -0.053027349337 0.014375689687 0.62751246083 -0.053026846719 -0.027869684498 0.28399728714 -0.032741089804 
0.027869684498 0.28399728714 -0.032741089804 -0.027869684498 0.5138839808 -0.032788350519 0.027869684498 0.5138839808 -0.032788350519 
-0.027869684498 0.28404593121 0.02300133675 0.027869684498 0.28404593121 0.02300133675 -0.027869684498 0.51390399945 0.022947959576 
0.027869684498 0.51390399945 0.022947959576 0.028300400562 0.28383861681 0.027443814697 0.027441805653 0.28378351731 -0.028295228933 
-0.027437984554 0.28381665778 0.028303252029 -0.028297900317 0.2837617036 -0.027436154755 0.028268199319 0.51371084185 0.02736344489 
0.027410033775 0.51365603029 -0.028375919114 -0.027470045737 0.51368901669 0.028222490779 -0.028330390754 0.51363405991 -0.027516452888 
0.041037438931 0.29810548779 0.018105529982 0.041454849553 0.29772667231 -0.037633813435 -0.014284409368 0.29823392538 -0.038050959387 
-0.014701803387 0.29861267019 0.017688385762 0.042202065821 0.52759733847 -0.038186793982 0.041784671354 0.52797344646 0.017552431535 
-0.013537174632 0.52810456299 -0.038603938394 -0.013954587964 0.52848074188 0.01713528591 0.027425222168 0.28156419919 -0.031169693261 
-0.028313663643 0.28154520413 -0.031502222163 -0.027869684498 0.29556041286 -0.027869684498 0.027869684498 0.29556041286 -0.027869684498 
0.027395783495 0.51143677053 -0.031325733805 -0.028342997393 0.51141562135 -0.031658229493 -0.027869684498 0.52543280277 -0.027869684498 
0.027869684498 0.52543280277 -0.027869684498 0.027093551701 0.28167119874 0.024569178258 -0.028646275712 0.28164938815 0.024237429876 
-0.027869684498 0.29556041286 0.027869684498 0.027869684498 0.29556041286 0.027869684498 -0.028675680531 0.51152423388 0.024081531838 
0.027064183647 0.51154256767 0.024413313223 -0.027869684498 0.52543280277 0.027869684498 0.027869684498 0.52543280277 0.027869684498 
0.029025568697 0.29488181302 -0.03631011183 -0.030238679881 0.28547528176 -0.029987151782 0.025500417394 0.28563328015 -0.028758702966 
0.024272116576 0.28571038237 0.02698067881 0.027429080989 0.52702666493 -0.035123127548 -0.030470899177 0.51534645767 -0.030100053696 
0.024039577874 0.51558300459 0.026866780198 0.025267853047 0.5155056899 -0.02887149513 -0.030893372163 0.28051182058 0.03246326635 
0.029599398665 0.28986094375 0.026139943113 -0.026139995026 0.28986732271 0.026139976268 -0.026139924348 0.28986094346 -0.029599379904 
-0.026121505282 0.50778562449 -0.029617891699 -0.02612138084 0.50780481094 0.026121399583 0.029617872957 0.5077856242 0.026121486537 
-0.029510454775 0.49617686173 0.031143856249 0.0016857056414 0.39436644463 -0.0030601797393 0.0016857056414 0.39432249077 -0.0064349289057 
-0.0016857056414 0.39432249077 -0.0064349289057 -0.0016857056414 0.39436644463 -0.0030601797393 -0.027869684498 0.52501000513 -0.027869684498 
0.027869684498 0.52501000513 -0.027869684498 0.11830098307 0.56583568283 0.012595852653 0.17403208688 0.5597149904 0.013692945796 
0.12402148847 0.62156649761 0.016733430484 0.17975335516 0.61544604557 0.017830955039 -0.027869684498 0.52501000513 0.027869684498 
0.027869684498 0.52501000513 0.027869684498 0.11703767093 0.56079090526 0.068329273936 0.17276884066 0.55467007836 0.069426445784 