# vtk DataFile Version 5.1
Generated by LIGGGHTS
ASCII
DATASET POLYDATA
POINTS 974 float
-0.137645 0.056176 -0.144322 -0.141071 0.0695731 -0.143753 -0.0115647 0.0703036 -0.14348 
-0.100866 0.104231 -0.142659 -0.0730509 0.112462 -0.142482 -0.126424 0.117464 -0.142881 
-0.0493702 0.175986 -0.142603 -0.144013 0.0598357 -0.135348 -0.118383 0.0576401 -0.138939 
-0.0753929 0.0588822 -0.137579 -0.067586 0.0804411 -0.137579 -0.133437 0.0678615 -0.133134 
-0.0433021 0.0703464 -0.128952 -0.0791615 0.0847877 -0.132324 -0.007046 0.090823 -0.13236 
-0.0231544 0.108893 -0.133143 -0.00531046 0.14698 -0.131348 -0.0728495 0.167983 -0.129665 
-0.116259 0.0595745 -0.12258 -0.140249 0.0573744 -0.115926 -0.0857517 0.0587129 -0.117969 
-0.130744 0.0639298 -0.118901 -0.13237 0.0760163 -0.119853 -0.139811 0.0840871 -0.118964 
-0.0360603 0.08115 -0.118771 -0.08472 0.096171 -0.117877 -0.116947 0.118544 -0.11793 
-0.124658 0.0642836 -0.107943 -0.0334319 0.0727277 -0.110252 -0.118375 0.08592 -0.109159 
-0.0163446 0.0942342 -0.109987 -0.0819029 0.111939 -0.110926 -0.11208 0.137418 -0.105723 
-0.0235568 0.171252 -0.106826 -0.0840762 0.197107 -0.109177 -0.022894 0.0591941 -0.104601 
-0.0614447 0.0739969 -0.100437 -0.0560261 0.104565 -0.0906411 -0.0445717 0.107784 -0.090941 
-0.0666969 0.125689 -0.0921752 -0.0512284 0.0611374 -0.0862486 -0.09802 0.0699298 -0.0897314 
-0.00633155 0.074078 -0.0878292 -0.0266795 0.0660014 -0.0803291 -0.0426734 0.0908151 -0.0763485 
-0.0744733 0.100333 -0.0818018 -0.11235 0.0596322 -0.0684692 -0.126817 0.0760751 -0.0736981 
-0.0493386 0.0713982 -0.0710268 -0.0312724 0.0725883 -0.0742839 -0.045387 0.0583572 -0.0644364 
-0.117016 0.0682251 -0.0597593 -0.115014 0.156221 -0.0603126 -0.115403 0.0798894 -0.0548085 
-0.0448563 0.119342 -0.0575368 -0.073296 0.0568842 -0.0475228 -0.0360533 0.0559976 -0.0488658 
-0.0611865 0.0740261 -0.0461263 -0.00836722 0.0711254 -0.0456381 -0.142655 0.09809 -0.0516952 
-0.0228624 0.107456 -0.0479785 -0.0282169 0.180752 -0.0536312 -0.0365896 0.0879616 -0.0446404 
-0.0928986 0.0992841 -0.0383681 -0.0244316 0.119072 -0.0424116 -0.132998 0.154361 -0.0425992 
-0.0126124 0.0917838 -0.031408 -0.0266186 0.0962022 -0.0356661 -0.11188 0.0570129 -0.0259842 
-0.0932596 0.0837123 -0.0264205 -0.0194838 0.0855261 -0.0273374 -0.140356 0.105838 -0.0248106 
-0.00446957 0.137945 -0.0272401 -0.0568871 0.0686194 -0.0166364 -0.0692019 0.0707516 -0.0162015 
-0.0283208 0.0796268 -0.0223667 -0.0200993 0.108061 -0.0161369 -0.0472472 0.158756 -0.0163031 
-0.114088 0.0584157 -0.0144687 -0.0341121 0.0608301 -0.0126301 -0.132665 0.0673125 -0.0129425 
-0.124081 0.0617717 -0.0103514 -0.0068793 0.0816785 -0.00967867 -0.134136 0.121455 -0.0130213 
-0.137626 0.0577027 -0.00167658 -0.0835887 0.059105 -0.00260195 -0.0436313 0.0603087 -0.00475038 
-0.112823 0.062575 -0.00500077 -0.0718017 0.114355 -0.00373635 -0.109438 0.0739143 0.00101881 
-0.105058 0.0604397 0.0119602 -0.0378949 0.0561766 0.0139664 -0.143831 0.065465 0.0145481 
-0.133602 0.0647165 0.013516 -0.120124 0.0687066 0.00810726 -0.130811 0.0771591 0.0173659 
-0.0244179 0.0723837 0.0171875 -0.109614 0.0808426 0.0209612 -0.0724666 0.109876 0.0222474 
-0.0965093 0.122451 0.0217241 -0.122129 0.0554311 0.0239797 -0.0222894 0.0600814 0.0257881 
-0.119579 0.0746827 0.0264208 -0.0347998 0.0756868 0.0282807 -0.0623349 0.0777049 0.0286544 
-0.087572 0.0753295 0.0339852 -0.0214209 0.0739139 0.0322449 -0.126685 0.118624 0.0323355 
-0.0428024 0.198208 0.0363331 -0.0423389 0.0587403 0.0403443 -0.106567 0.0677569 0.0445533 
-0.0616347 0.0666877 0.0448906 -0.127231 0.0920513 0.0385158 -0.134472 0.148415 0.0434926 
-0.0762976 0.0655108 0.0488438 -0.1377 0.0726827 0.0462519 -0.133695 0.0621622 0.0588704 
-0.085537 0.0574342 0.0651931 -0.0345093 0.061548 0.0620722 -0.138641 0.0703805 0.0638165 
-0.0123274 0.0786397 0.0633643 -0.109492 0.191075 0.0604452 -0.128299 0.0611137 0.0724159 
-0.0395365 0.0826259 0.0667215 -0.035564 0.130385 0.0698673 -0.0737664 0.133999 0.0687208 
-0.00450212 0.0553462 0.0760858 -0.130062 0.0642445 0.0820279 -0.022751 0.0624013 0.0803773 
-0.116325 0.0914087 0.0827681 -0.00701639 0.0957152 0.0823278 -0.120307 0.105941 0.0796069 
-0.0781205 0.182628 0.0765852 -0.0484627 0.0677457 0.0896661 -0.125948 0.108907 0.0882788 
-0.0300615 0.124172 0.100066 -0.0554683 0.141828 0.103735 -0.024683 0.0741286 0.110886 
-0.0218808 0.0580399 0.117336 -0.063963 0.138625 0.11649 -0.0860012 0.13258 0.130866 
-0.0458119 0.165278 0.131512 -0.118098 0.191603 0.130413 -0.0811826 0.188703 0.129665 
-0.120988 0.0700396 0.141158 -0.0971428 0.0924044 0.140495 -0.0799269 0.174495 0.141676 
-0.0472299 0.179597 0.14384 -0.0913117 0.106105 0.14238 -0.106432 0.0579471 0.142801 
-0.119746 0.123828 0.00158045 -0.130449 0.213143 -0.13468 -0.130449 0.213143 -0.128454 
-0.124223 0.213143 -0.128454 -0.124223 0.213143 -0.13468 -0.130449 0.226725 -0.13468 
-0.130449 0.226725 -0.128454 -0.124223 0.226725 -0.128454 -0.124223 0.226725 -0.13468 
-0.11606 0.278721 -0.117005 -0.101253 0.278736 -0.117005 -0.116081 0.32769 -0.117128 
-0.101275 0.327705 -0.117128 -0.0421026 0.226125 -0.107501 -0.0332823 0.226125 -0.107501 
-0.0421026 0.250406 -0.107501 -0.0332823 0.250406 -0.107501 -0.0421026 0.226125 -0.0986803 
-0.0332823 0.226125 -0.0986803 -0.0421026 0.250406 -0.0986803 -0.0332823 0.250406 -0.0986803 
-0.11606 0.278806 -0.102198 -0.101253 0.27882 -0.102198 -0.116081 0.327774 -0.102321 
-0.101275 0.327789 -0.102321 -0.0823324 0.221884 -0.0928193 -0.0901551 0.221884 -0.0928193 
-0.0901551 0.24205 -0.0928193 -0.0823324 0.24205 -0.0928193 -0.0713198 0.204367 -0.0846522 
-0.071319 0.204367 -0.0892821 -0.0666899 0.204367 -0.0846514 -0.0666891 0.204367 -0.0892813 
-0.0713198 0.211366 -0.084652 -0.0713191 0.211366 -0.0892819 -0.0666899 0.211366 -0.0846512 
-0.0666892 0.211366 -0.0892811 -0.0901551 0.221884 -0.0849966 -0.0823324 0.221884 -0.0849966 
-0.0901551 0.24205 -0.0849966 -0.0823324 0.24205 -0.0849966 -0.0567582 0.238886 -0.0901044 
-0.0453437 0.238886 -0.0901044 -0.0567582 0.273867 -0.0901109 -0.0453437 0.273867 -0.0901109 
-0.0682692 0.222778 -0.0783818 -0.0600475 0.222791 -0.0783977 -0.120792 0.236376 -0.0764023 
-0.109976 0.236379 -0.0765129 -0.0555768 0.239672 -0.07936 -0.0453437 0.238893 -0.0786895 
-0.0682877 0.24459 -0.0784588 -0.0612475 0.243823 -0.0778042 -0.120796 0.268886 -0.0764126 
-0.10998 0.268889 -0.0765233 -0.0567582 0.27387 -0.0786969 -0.0453437 0.27387 -0.0786969 
-0.0824677 0.205208 -0.0703416 -0.0824677 0.205208 -0.0751711 -0.0872972 0.205208 -0.0703416 
-0.0872972 0.205208 -0.0751711 -0.0824677 0.21303 -0.0703416 -0.0824677 0.21303 -0.0751711 
-0.0872972 0.21303 -0.0703416 -0.0872972 0.21303 -0.0751711 -0.0682533 0.222831 -0.07016 
-0.0600316 0.222844 -0.0701759 -0.0236959 0.238511 -0.0699283 -0.0126805 0.238444 -0.0698731 
-0.0682719 0.244643 -0.0702371 -0.0600501 0.244656 -0.070253 -0.0235974 0.271844 -0.0700011 
-0.0125821 0.271777 -0.0699459 -0.120681 0.236383 -0.0655865 -0.109865 0.236386 -0.0656971 
-0.0133505 0.239086 -0.0600521 -0.120685 0.268893 -0.0655968 -0.10987 0.268896 -0.0657074 
-0.087194 0.227261 -0.0543832 -0.0779746 0.227261 -0.0543832 -0.0237511 0.238562 -0.0589129 
-0.0169498 0.233252 -0.0575889 -0.00714787 0.233846 -0.0587429 -0.0589692 0.243618 -0.055521 
-0.0469561 0.243618 -0.055521 -0.087194 0.25319 -0.0543884 -0.0779746 0.25319 -0.0543884 
-0.0175681 0.264707 -0.0588022 -0.00715143 0.26471 -0.0587617 -0.0236527 0.271894 -0.0589858 
-0.0126373 0.271827 -0.0589306 -0.0589692 0.281066 -0.055521 -0.0469561 0.281066 -0.055521 
-0.087194 0.227268 -0.0451635 -0.0779746 0.227268 -0.0451635 -0.017605 0.233856 -0.0483665 
-0.00718821 0.233859 -0.0483262 -0.087194 0.253192 -0.0451692 -0.0779746 0.253192 -0.0451692 
-0.0176086 0.264721 -0.0483854 -0.00719176 0.264723 -0.048345 -0.0589692 0.243618 -0.0435078 
-0.0469561 0.243618 -0.0435078 -0.0589692 0.281066 -0.0435078 -0.0469561 0.281066 -0.0435078 
-0.107362 0.211328 -0.0357131 -0.101335 0.211328 -0.0357131 -0.107362 0.224087 -0.0357131 
-0.101335 0.224087 -0.0357131 -0.131893 0.225502 -0.0351048 -0.123272 0.225502 -0.0351048 
-0.131893 0.248959 -0.0351046 -0.123272 0.248959 -0.0351046 -0.107362 0.211328 -0.0296864 
-0.101335 0.211328 -0.0296864 -0.107362 0.224087 -0.0296864 -0.101335 0.224087 -0.0296864 
-0.131893 0.225501 -0.026484 -0.123272 0.225501 -0.026484 -0.131893 0.24896 -0.0264838 
-0.123272 0.24896 -0.0264838 -0.0463186 0.206122 -0.0172466 -0.0513476 0.206122 -0.0222755 
-0.0513476 0.206122 -0.0172466 -0.0463186 0.206122 -0.0222755 -0.0463186 0.214767 -0.0172466 
-0.0463186 0.214767 -0.0222755 -0.0513476 0.214767 -0.0222755 -0.0513476 0.214767 -0.0172466 
-0.0222456 0.236419 -0.0196205 -0.0121854 0.236307 -0.0169646 -0.0228601 0.268848 -0.0176054 
-0.0122152 0.268817 -0.016979 -0.03139 0.236185 -0.00855262 -0.0177718 0.237128 -0.0102269 
-0.0307503 0.267234 -0.00878554 -0.0172034 0.269962 -0.0121794 -0.0450376 0.211092 -0.00729878 
-0.0510643 0.21106 -0.00730395 -0.051094 0.223831 -0.00729879 -0.0450673 0.22384 -0.00730397 
-0.0248045 0.23542 -0.00477133 -0.012172 0.236327 -0.00620906 -0.0260495 0.26604 -0.0025762 
-0.0123734 0.268827 -0.00616333 -0.0510643 0.211071 0.00499301 -0.0450376 0.211081 0.00498784 
-0.051094 0.22382 0.00498785 -0.0450673 0.223851 0.00499302 -0.0307526 0.23622 0.00203267 
-0.0207464 0.236075 0.00426824 -0.0307503 0.267237 0.00203029 -0.0199759 0.267221 0.002147 
-0.090832 0.215861 0.0207489 -0.0838076 0.215865 0.020714 -0.0908375 0.232735 0.0207491 
-0.0838131 0.232739 0.0207143 -0.0907972 0.215861 0.0277733 -0.0837727 0.215865 0.0277385 
-0.0908027 0.232735 0.0277735 -0.0837783 0.232739 0.0277387 -0.106638 0.217246 0.0370856 
-0.106636 0.21724 0.0298616 -0.0994115 0.217242 0.0298643 -0.0994142 0.217248 0.0370883 
-0.0708875 0.230849 0.0329634 -0.0612689 0.230849 0.0329634 -0.106638 0.234938 0.029853 
-0.106641 0.234943 0.037077 -0.0994167 0.234945 0.0370797 -0.0994141 0.234939 0.0298557 
[...]
POINT_DATA 974
FIELD FieldData 8
id 1 974 int
3781 3801 3730 3994 3744 3970 3884 3894 3745 
2648 3749 2739 2901 3917 3952 3937 3726 3802 
2755 3024 3931 3785 3023 3823 3296 3981 3359 
3586 3852 3908 3773 3180 3987 3959 3403 3844 
3685 3808 3903 3830 3960 3738 3943 3966 3242 
3932 3360 3716 3757 3877 3731 3727 3243 3135 
3873 3918 3961 3814 2962 3896 3809 3519 3758 
3939 3244 3951 2749 2824 3853 2961 3995 3920 
3774 3786 3938 3787 3879 3953 3885 3919 3297 
3182 2482 3815 3925 3746 3975 3971 3686 3831 
3720 3962 3688 3982 2902 3825 3782 3950 3996 
3988 3836 3847 3803 3940 3906 3775 3587 3909 
3989 3747 3631 3788 3955 3728 3911 3854 3760 
3768 3406 3864 3461 3859 3863 3954 3765 3761 
3871 3721 2550 3941 3325 3910 3904 3136 3776 
2509 3997 3754 3977 3963 3632 3874 3921 3897 
3729 3875 3837 3690 3956 3689 2823 4442 4443 
4447 4446 4444 4445 4441 4448 4018 4022 4020 
4024 4226 4230 4228 4232 4227 4231 4229 4225 
4019 4023 4021 4017 4334 4330 4332 4336 4603 
4602 4607 4606 4605 4604 4601 4608 4331 4335 
4333 4329 4042 4046 4044 4048 4282 4286 4084 
4088 4043 4047 4284 4288 4086 4090 4045 4041 
4599 4598 4595 4594 4593 4600 4597 4596 4283 
4287 4058 4062 4285 4281 4060 4064 4085 4089 
4063 4087 4091 4194 4198 4059 4138 4142 4026 
4030 4196 4200 4140 4144 4061 4057 4028 4032 
4195 4199 4139 4143 4197 4193 4141 4137 4027 
4031 4029 4025 4475 4479 4477 4481 4258 4262 
4260 4264 4476 4480 4478 4482 4259 4263 4261 
4257 4583 4578 4579 4582 4577 4584 4580 4581 
4092 4096 4094 4074 4076 4093 4078 4095 4487 
4483 4485 4474 4080 4075 4082 4073 4484 4488 
4486 4473 4077 4081 4079 4083 4362 4366 4364 
4368 4363 4367 4365 4361 4347 4346 4350 4351 
4162 4166 4348 4349 4345 4352 4164 4168 4010 
4012 4163 4167 4165 4161 4636 4637 4635 4634 
4633 4640 4638 4639 4314 4318 4354 4316 4320 
4356 4011 4013 4498 4315 4319 4266 4270 4355 
4146 4150 4317 4313 4034 4357 4038 4268 4272 
4148 4152 4036 4040 4002 4006 4004 4008 4499 
4267 4271 4500 4501 4115 4119 4147 4151 4035 
4039 4269 4265 4149 4145 4117 4121 4068 4072 
4037 4033 4154 4158 4066 4070 4156 4160 4003 
4007 4005 4001 4234 4238 4155 4159 4210 4214 
4116 4120 4123 4127 4067 4071 4236 4240 4212 
4216 4157 4153 4118 4122 4125 4114 4069 4065 
4535 4534 4531 4530 4387 4391 4529 4536 4533 
4532 4235 4239 4389 4393 4211 4215 4124 4128 
4237 4233 4213 4209 4126 4113 4586 4590 4450 
4454 4588 4592 4388 4392 4418 4422 4452 4456 
4390 4394 4420 4424 4587 4591 4451 4455 4589 
4585 4419 4423 4290 4294 4453 4449 4178 4182 
4421 4417 4292 4296 4180 4184 4559 4555 4561 
4557 4291 4295 4338 4342 4179 4183 4340 4344 
4293 4289 4181 4177 4560 4556 4510 4506 4562 
4558 4400 4399 4396 4395 4512 4508 4339 4343 
4385 4386 4398 4397 4341 4337 4613 4614 4617 
4618 4616 4615 4612 4611 4511 4507 4509 4505 
4563 4567 4565 4554 4050 4052 4609 4610 4622 
4621 4619 4620 4564 4568 4566 4553 4051 4053 
4624 4623 3899 3849 3161 3811 3876 3905 3942 
3818 3927 3934 3789 3440 3900 3972 3838 3762 
3860 3784 3957 3964 3978 3945 3025 3405 3741 
3717 2927 3755 3922 3985 3867 2989 2481 3858 
3796 3666 2591 3856 3778 3711 3888 2867 3819 
3441 3826 3737 3869 3806 3712 3805 3665 3766 
3208 3881 3386 2748 3812 3770 3162 3840 3797 
3691 3723 2483 3889 3850 3891 3262 3324 3851 
2751 3777 3614 3793 3973 3929 3771 2750 3890 
3946 3991 3990 3714 3914 3882 3385 3791 3442 
3763 3999 3870 3915 4647 3779 3764 2690 3732 
3263 3913 4642 4643 4646 3820 3923 3613 3901 
3742 3718 2790 3828 2484 3668 3692 2963 3799 
3084 3979 3974 3993 4655 3916 3998 3667 3924 
3810 2928 3790 3835 3947 3750 3739 3715 3719 
3892 3821 3846 4000 3298 3751 3772 3857 3861 
3833 3443 3926 3958 3968 3935 3733 3798 3983 
3843 3326 3800 3780 2868 3872 3992 3725 2753 
3967 3980 3792 3936 3930 3444 3969 3693 3902 
3743 3883 3848 4650 4651 4654 4628 4629 4627 
4626 4625 4632 4631 4630 4516 4515 4520 4519 
4518 4517 4522 4521 4402 4406 4404 4408 4403 
4407 4405 4401 4524 4523 4528 4527 4526 4525 
4513 4514 4430 4426 4432 4428 4431 4427 4425 
4429 4495 4490 4491 4494 4370 4374 4298 4302 
4489 4496 4492 4493 4376 4372 4300 4304 4375 
4371 4299 4303 4202 4206 4369 4373 4301 4297 
4204 4208 4547 4546 4551 4550 4459 4458 4463 
4462 4548 4549 4545 4552 4461 4460 4464 4457 
4203 4207 4205 4201 4641 4648 4644 4645 4014 
4016 4306 4310 4308 4312 4538 4542 4543 4539 
4544 4540 4537 4541 4358 4322 4326 4307 4311 
4360 4328 4324 4309 4305 4015 4009 4502 4378 
4382 4359 4323 4327 4384 4380 4353 4325 4321 
4192 4503 4379 4383 4504 4497 4377 4381 4186 
4190 4188 4187 4191 4243 4247 4103 4185 4099 
4189 4245 4249 4101 4105 4244 4248 4100 4104 
4246 4250 4102 4106 4410 4414 4412 4416 4411 
4415 4413 4409 4438 4434 4440 4436 4439 4435 
4437 4433 4130 4134 4132 4136 4218 4222 4251 
4255 4220 4224 4253 4242 4219 4223 4252 4256 
4170 4174 4131 4135 4221 4217 4254 4241 4172 
4176 4133 4129 4466 4470 4468 4472 4171 4175 
4054 4173 4169 4056 4571 4570 4575 4574 4467 
4471 4573 4572 4576 4569 4274 4278 4469 4465 
4276 4107 4111 4280 4109 4098 4275 4279 4277 
4108 4112 4055 4273 4110 4097 4049 4649 4656 
4652 4653 
type 1 974 int
2 2 2 2 2 2 2 2 2 
2 2 2 2 2 2 2 2 2 
2 2 2 2 2 2 2 2 2 
2 2 2 2 2 2 2 2 2 
2 2 2 2 2 2 2 2 2 
2 2 2 2 2 2 2 2 2 
2 2 2 2 2 2 2 2 2 
2 2 2 2 2 2 2 2 2 
2 2 2 2 2 2 2 2 2 
2 2 2 2 2 2 2 2 2 
2 2 2 2 2 2 2 2 2 
2 2 2 2 2 2 2 2 2 
2 2 2 2 2 2 2 2 2 
2 2 2 2 2 2 2 2 2 
2 2 2 2 2 2 2 2 2 
2 2 2 2 2 2 2 2 2 
2 2 2 2 2 2 2 2 2 
2 2 2 2 2 2 2 2 2 
2 2 2 2 2 2 2 2 2 
2 2 2 2 2 2 2 2 2 
2 2 2 2 2 2 2 2 2 
2 2 2 2 2 2 2 2 2 
2 2 2 2 2 2 2 2 2 
2 2 2 2 2 2 2 2 2 
2 2 2 2 2 2 2 2 2 
2 2 2 2 2 2 2 2 2 
2 2 2 2 2 2 2 2 2 
2 2 2 2 2 2 2 2 2 
2 2 2 2 2 2 2 2 2 
2 2 2 2 2 2 2 2 2 
2 2 2 2 2 2 2 2 2 
2 2 2 2 2 2 2 2 2 
2 2 2 2 2 2 2 2 2 
2 2 2 2 2 2 2 2 2 
2 2 2 2 2 2 2 2 2 
2 2 2 2 2 2 2 2 2 
2 2 2 2 2 2 2 2 2 
2 2 2 2 2 2 2 2 2 
2 2 2 2 2 2 2 2 2 
2 2 2 2 2 2 2 2 2 
2 2 2 2 2 2 2 2 2 
2 2 2 2 2 2 2 2 2 
2 2 2 2 2 2 2 2 2 
2 2 2 2 2 2 2 2 2 
2 2 2 2 2 2 2 2 2 
2 2 2 2 2 2 2 2 2 
2 2 2 2 2 2 2 2 2 
2 2 2 2 2 2 2 2 2 
2 2 2 2 2 2 2 2 2 
2 2 2 2 2 2 2 2 2 
2 2 2 2 2 2 2 2 2 
2 2 2 2 2 2 2 2 2 
2 2 2 2 2 2 2 2 2 
2 2 2 2 2 2 2 2 2 
2 2 2 2 2 2 2 2 2 
2 2 2 2 2 2 2 2 2 
2 2 2 2 2 2 2 2 2 
2 2 2 2 2 2 2 2 2 
2 2 2 2 2 2 2 2 2 
2 2 2 2 2 2 2 2 2 
2 2 2 2 2 2 2 2 2 
2 2 2 2 2 2 2 2 2 
2 2 2 2 2 2 2 2 2 
2 2 2 2 2 2 2 2 2 
2 2 2 2 2 2 2 2 2 
2 2 2 2 2 2 2 2 2 
2 2 2 2 2 2 2 2 2 
2 2 2 2 2 2 2 2 2 
2 2 2 2 2 2 2 2 2 
2 2 2 2 2 2 2 2 2 
2 2 2 2 2 2 2 2 2 
2 2 2 2 2 2 2 2 2 
2 2 2 2 2 2 2 2 2 
2 2 2 2 2 2 2 2 2 
2 2 2 2 2 2 2 2 2 
2 2 2 2 2 2 2 2 2 
2 2 2 2 2 2 2 2 2 
2 2 2 2 2 2 2 2 2 
2 2 2 2 2 2 2 2 2 
2 2 2 2 2 2 2 2 2 
2 2 2 2 2 2 2 2 2 
2 2 2 2 2 2 2 2 2 
2 2 2 2 2 2 2 2 2 
2 2 2 2 2 2 2 2 2 
2 2 2 2 2 2 2 2 2 
2 2 2 2 2 2 2 2 2 
2 2 2 2 2 2 2 2 2 
2 2 2 2 2 2 2 2 2 
2 2 2 2 2 2 2 2 2 
2 2 2 2 2 2 2 2 2 
2 2 2 2 2 2 2 2 2 
2 2 2 2 2 2 2 2 2 
2 2 2 2 2 2 2 2 2 
2 2 2 2 2 2 2 2 2 
2 2 2 2 2 2 2 2 2 
2 2 2 2 2 2 2 2 2 
2 2 2 2 2 2 2 2 2 
2 2 2 2 2 2 2 2 2 
2 2 2 2 2 2 2 2 2 
2 2 2 2 2 2 2 2 2 
2 2 2 2 2 2 2 2 2 
2 2 2 2 2 2 2 2 2 
2 2 2 2 2 2 2 2 2 
2 2 2 2 2 2 2 2 2 
2 2 2 2 2 2 2 2 2 
2 2 2 2 2 2 2 2 2 
2 2 2 2 2 2 2 2 2 
2 2 2 2 2 2 2 2 2 
2 2 
i 3 974 int
0 0 0 0 0 0 0 0 0 
0 0 0 0 0 0 0 0 0 
0 0 0 0 0 0 0 0 0 
0 0 0 0 0 0 0 0 0 
0 0 0 0 0 0 0 0 0 
0 0 0 0 0 0 0 0 0 
0 0 0 0 0 0 0 0 0 
0 0 0 0 0 0 0 0 0 
0 0 0 0 0 0 0 0 0 
0 0 0 0 0 0 0 0 0 
0 0 0 0 0 0 0 0 0 
0 0 0 0 0 0 0 0 0 
0 0 0 0 0 0 0 0 0 
0 0 0 0 0 0 0 0 0 
0 0 0 0 0 0 0 0 0 
0 0 0 0 0 0 0 0 0 
0 0 0 0 0 0 0 0 0 
0 0 0 0 0 0 0 0 0 
0 0 0 0 0 0 0 0 0 
0 0 0 0 0 0 0 0 0 
0 0 0 0 0 0 0 0 0 
0 0 0 0 0 0 0 0 0 
0 0 0 0 0 0 0 0 0 
0 0 0 0 0 0 0 0 0 
0 0 0 0 0 0 0 0 0 
0 0 0 0 0 0 0 0 0 
0 0 0 0 0 0 0 0 0 
0 0 0 0 0 0 0 0 0 
0 0 0 0 0 0 0 0 0 
0 0 0 0 0 0 0 0 0 
0 0 0 0 0 0 0 0 0 
0 0 0 0 0 0 0 0 0 
0 0 0 0 0 0 0 0 0 
0 0 0 0 0 0 0 0 0 
0 0 0 0 0 0 0 0 0 
0 0 0 0 0 0 0 0 0 
0 0 0 0 0 0 0 0 0 
0 0 0 0 0 0 0 0 0 
0 0 0 0 0 0 0 0 0 
0 0 0 0 0 0 0 0 0 
0 0 0 0 0 0 0 0 0 
0 0 0 0 0 0 0 0 0 
0 0 0 0 0 0 0 0 0 
0 0 0 0 0 0 0 0 0 
0 0 0 0 0 0 0 0 0 
0 0 0 0 0 0 0 0 0 
0 0 0 0 0 0 0 0 0 
0 0 0 0 0 0 0 0 0 
0 0 0 0 0 0 0 0 0 
0 0 0 0 0 0 0 0 0 
0 0 0 0 0 0 0 0 0 
0 0 0 0 0 0 0 0 0 
0 0 0 0 0 0 0 0 0 
0 0 0 0 0 0 0 0 0 
0 0 0 0 0 0 0 0 0 
0 0 0 0 0 0 0 0 0 
0 0 0 0 0 0 0 0 0 
0 0 0 0 0 0 0 0 0 
0 0 0 0 0 0 0 0 0 
0 0 0 0 0 0 0 0 0 
0 0 0 0 0 0 0 0 0 
0 0 0 0 0 0 0 0 0 
0 0 0 0 0 0 0 0 0 
0 0 0 0 0 0 0 0 0 
0 0 0 0 0 0 0 0 0 
0 0 0 0 0 0 0 0 0 
0 0 0 0 0 0 0 0 0 
0 0 0 0 0 0 0 0 0 
0 0 0 0 0 0 0 0 0 
0 0 0 0 0 0 0 0 0 
0 0 0 0 0 0 0 0 0 
0 0 0 0 0 0 0 0 0 
0 0 0 0 0 0 0 0 0 
0 0 0 0 0 0 0 0 0 
0 0 0 0 0 0 0 0 0 
0 0 0 0 0 0 0 0 0 
0 0 0 0 0 0 0 0 0 
0 0 0 0 0 0 0 0 0 
0 0 0 0 0 0 0 0 0 
0 0 0 0 0 0 0 0 0 
0 0 0 0 0 0 0 0 0 
0 0 0 0 0 0 0 0 0 
0 0 0 0 0 0 0 0 0 
0 0 0 0 0 0 0 0 0 
0 0 0 0 0 0 0 0 0 
0 0 0 0 0 0 0 0 0 
0 0 0 0 0 0 0 0 0 
0 0 0 0 0 0 0 0 0 
0 0 0 0 0 0 0 0 0 
0 0 0 0 0 0 0 0 0 
0 0 0 0 0 0 0 0 0 
0 0 0 0 0 0 0 0 0 
0 0 0 0 0 0 0 0 0 
0 0 0 0 0 0 0 0 0 
0 0 0 0 0 0 0 0 0 
0 0 0 0 0 0 0 0 0 
0 0 0 0 0 0 0 0 0 
0 0 0 0 0 0 0 0 0 
0 0 0 0 0 0 0 0 0 
0 0 0 0 0 0 0 0 0 
0 0 0 0 0 0 0 0 0 
0 0 0 0 0 0 0 0 0 
0 0 0 0 0 0 0 0 0 
0 0 0 0 0 0 0 0 0 
0 0 0 0 0 0 0 0 0 
0 0 0 0 0 0 0 0 0 
0 0 0 0 0 0 0 0 0 
0 0 0 0 0 0 0 0 0 
0 0 0 0 0 0 0 0 0 
0 0 0 0 0 0 0 0 0 
0 0 0 0 0 0 0 0 0 
0 0 0 0 0 0 0 0 0 
0 0 0 0 0 0 0 0 0 
0 0 0 0 0 0 0 0 0 
0 0 0 0 0 0 0 0 0 
0 0 0 0 0 0 0 0 0 
0 0 0 0 0 0 0 0 0 
0 0 0 0 0 0 0 0 0 
0 0 0 0 0 0 0 0 0 
0 0 0 0 0 0 0 0 0 
0 0 0 0 0 0 0 0 0 
0 0 0 0 0 0 0 0 0 
0 0 0 0 0 0 0 0 0 
0 0 0 0 0 0 0 0 0 
0 0 0 0 0 0 0 0 0 
0 0 0 0 0 0 0 0 0 
0 0 0 0 0 0 0 0 0 
0 0 0 0 0 0 0 0 0 
0 0 0 0 0 0 0 0 0 
0 0 0 0 0 0 0 0 0 
0 0 0 0 0 0 0 0 0 
0 0 0 0 0 0 0 0 0 
0 0 0 0 0 0 0 0 0 
0 0 0 0 0 0 0 0 0 
0 0 0 0 0 0 0 0 0 
0 0 0 0 0 0 0 0 0 
0 0 0 0 0 0 0 0 0 
0 0 0 0 0 0 0 0 0 
0 0 0 0 0 0 0 0 0 
0 0 0 0 0 0 0 0 0 
0 0 0 0 0 0 0 0 0 
0 0 0 0 0 0 0 0 0 
0 0 0 0 0 0 0 0 0 
0 0 0 0 0 0 0 0 0 
0 0 0 0 0 0 0 0 0 
0 0 0 0 0 0 0 0 0 
0 0 0 0 0 0 0 0 0 
0 0 0 0 0 0 0 0 0 
0 0 0 0 0 0 0 0 0 
0 0 0 0 0 0 0 0 0 
0 0 0 0 0 0 0 0 0 
0 0 0 0 0 0 0 0 0 
0 0 0 0 0 0 0 0 0 
0 0 0 0 0 0 0 0 0 
0 0 0 0 0 0 0 0 0 
0 0 0 0 0 0 0 0 0 
0 0 0 0 0 0 0 0 0 
0 0 0 0 0 0 0 0 0 
0 0 0 0 0 0 0 0 0 
0 0 0 0 0 0 0 0 0 
0 0 0 0 0 0 0 0 0 
0 0 0 0 0 0 0 0 0 
0 0 0 0 0 0 0 0 0 
0 0 0 0 0 0 0 0 0 
0 0 0 0 0 0 0 0 0 
0 0 0 0 0 0 0 0 0 
0 0 0 0 0 0 0 0 0 
0 0 0 0 0 0 0 0 0 
0 0 0 0 0 0 0 0 0 
0 0 0 0 0 0 0 0 0 
0 0 0 0 0 0 0 0 0 
0 0 0 0 0 0 0 0 0 
0 0 0 0 0 0 0 0 0 
0 0 0 0 0 0 0 0 0 
0 0 0 0 0 0 0 0 0 
0 0 0 0 0 0 0 0 0 
0 0 0 0 0 0 0 0 0 
0 0 0 0 0 0 0 0 0 
0 0 0 0 0 0 0 0 0 
0 0 0 0 0 0 0 0 0 
0 0 0 0 0 0 0 0 0 
0 0 0 0 0 0 0 0 0 
0 0 0 0 0 0 0 0 0 
0 0 0 0 0 0 0 0 0 
0 0 0 0 0 0 0 0 0 
0 0 0 0 0 0 0 0 0 
0 0 0 0 0 0 0 0 0 
0 0 0 0 0 0 0 0 0 
0 0 0 0 0 0 0 0 0 
0 0 0 0 0 0 0 0 0 
0 0 0 0 0 0 0 0 0 
0 0 0 0 0 0 0 0 0 
0 0 0 0 0 0 0 0 0 
0 0 0 0 0 0 0 0 0 
0 0 0 0 0 0 0 0 0 
0 0 0 0 0 0 0 0 0 
0 0 0 0 0 0 0 0 0 
0 0 0 0 0 0 0 0 0 
0 0 0 0 0 0 0 0 0 
0 0 0 0 0 0 0 0 0 
0 0 0 0 0 0 0 0 0 
0 0 0 0 0 0 0 0 0 
0 0 0 0 0 0 0 0 0 
0 0 0 0 0 0 0 0 0 
0 0 0 0 0 0 0 0 0 
0 0 0 0 0 0 0 0 0 
0 0 0 0 0 0 0 0 0 
0 0 0 0 0 0 0 0 0 
0 0 0 0 0 0 0 0 0 
0 0 0 0 0 0 0 0 0 
0 0 0 0 0 0 0 0 0 
0 0 0 0 0 0 0 0 0 
0 0 0 0 0 0 0 0 0 
0 0 0 0 0 0 0 0 0 
0 0 0 0 0 0 0 0 0 
0 0 0 0 0 0 0 0 0 
0 0 0 0 0 0 0 0 0 
0 0 0 0 0 0 0 0 0 
0 0 0 0 0 0 0 0 0 
0 0 0 0 0 0 0 0 0 
0 0 0 0 0 0 0 0 0 
0 0 0 0 0 0 0 0 0 
0 0 0 0 0 0 0 0 0 
0 0 0 0 0 0 0 0 0 
0 0 0 0 0 0 0 0 0 
0 0 0 0 0 0 0 0 0 
0 0 0 0 0 0 0 0 0 
0 0 0 0 0 0 0 0 0 
0 0 0 0 0 0 0 0 0 
0 0 0 0 0 0 0 0 0 
0 0 0 0 0 0 0 0 0 
0 0 0 0 0 0 0 0 0 
0 0 0 0 0 0 0 0 0 
0 0 0 0 0 0 0 0 0 
0 0 0 0 0 0 0 0 0 
0 0 0 0 0 0 0 0 0 
0 0 0 0 0 0 0 0 0 
0 0 0 0 0 0 0 0 0 
0 0 0 0 0 0 0 0 0 
0 0 0 0 0 0 0 0 0 
0 0 0 0 0 0 0 0 0 
0 0 0 0 0 0 0 0 0 
0 0 0 0 0 0 0 0 0 
0 0 0 0 0 0 0 0 0 
0 0 0 0 0 0 0 0 0 
0 0 0 0 0 0 0 0 0 
0 0 0 0 0 0 0 0 0 
0 0 0 0 0 0 0 0 0 
0 0 0 0 0 0 0 0 0 
0 0 0 0 0 0 0 0 0 
0 0 0 0 0 0 0 0 0 
0 0 0 0 0 0 0 0 0 
0 0 0 0 0 0 0 0 0 
0 0 0 0 0 0 0 0 0 
0 0 0 0 0 0 0 0 0 
0 0 0 0 0 0 0 0 0 
0 0 0 0 0 0 0 0 0 
0 0 0 0 0 0 0 0 0 
0 0 0 0 0 0 0 0 0 
0 0 0 0 0 0 0 0 0 
0 0 0 0 0 0 0 0 0 
0 0 0 0 0 0 0 0 0 
0 0 0 0 0 0 0 0 0 
0 0 0 0 0 0 0 0 0 
0 0 0 0 0 0 0 0 0 
0 0 0 0 0 0 0 0 0 
0 0 0 0 0 0 0 0 0 
0 0 0 0 0 0 0 0 0 
0 0 0 0 0 0 0 0 0 
0 0 0 0 0 0 0 0 0 
0 0 0 0 0 0 0 0 0 
0 0 0 0 0 0 0 0 0 
0 0 0 0 0 0 0 0 0 
0 0 0 0 0 0 0 0 0 
0 0 0 0 0 0 0 0 0 
0 0 0 0 0 0 0 0 0 
0 0 0 0 0 0 0 0 0 
0 0 0 0 0 0 0 0 0 
0 0 0 0 0 0 0 0 0 
0 0 0 0 0 0 0 0 0 
0 0 0 0 0 0 0 0 0 
0 0 0 0 0 0 0 0 0 
0 0 0 0 0 0 0 0 0 
0 0 0 0 0 0 0 0 0 
0 0 0 0 0 0 0 0 0 
0 0 0 0 0 0 0 0 0 
0 0 0 0 0 0 0 0 0 
0 0 0 0 0 0 0 0 0 
0 0 0 0 0 0 0 0 0 
0 0 0 0 0 0 0 0 0 
0 0 0 0 0 0 0 0 0 
0 0 0 0 0 0 0 0 0 
0 0 0 0 0 0 0 0 0 
0 0 0 0 0 0 0 0 0 
0 0 0 0 0 0 0 0 0 
0 0 0 0 0 0 0 0 0 
0 0 0 0 0 0 0 0 0 
0 0 0 0 0 0 0 0 0 
0 0 0 0 0 0 0 0 0 
0 0 0 0 0 0 0 0 0 
0 0 0 0 0 0 0 0 0 
0 0 0 0 0 0 0 0 0 
0 0 0 0 0 0 0 0 0 
0 0 0 0 0 0 0 0 0 
0 0 0 0 0 0 0 0 0 
0 0 0 0 0 0 0 0 0 
0 0 0 0 0 0 0 0 0 
0 0 0 0 0 0 0 0 0 
0 0 0 0 0 0 0 0 0 
0 0 0 0 0 0 0 0 0 
0 0 0 0 0 0 0 0 0 
0 0 0 0 0 0 0 0 0 
0 0 0 0 0 0 0 0 0 
0 0 0 0 0 0 0 0 0 
0 0 0 0 0 0 0 0 0 
0 0 0 0 0 0 0 0 0 
0 0 0 0 0 0 0 0 0 
0 0 0 0 0 0 0 0 0 
0 0 0 0 0 0 0 0 0 
0 0 0 0 0 0 0 0 0 
0 0 0 0 0 0 0 0 0 
0 0 0 0 0 0 0 0 0 
0 0 0 0 0 0 0 0 0 
0 0 0 0 0 0 0 0 0 
0 0 0 0 0 0 
v 3 974 double
0.0080156891962 -0.0015029605931 0.004447886628 0.010048934566 -0.00070430313784 0.0034683114765 -0.067016782723 0.05887268572 -0.088471391057 
-0.015970077835 0.15166809512 0.0078683031147 0.0084999301845 0.1323890659 0.0081926522313 -0.13317801248 0.16221021249 0.0070055395523 
0.0041098429884 0.30328549985 0.0085481915591 0.0046274359853 0.008066801115 -0.0032981339191 -0.0056303209371 0.0085283445581 0.016039859049 
-0.027173646627 0.011902077028 0.021408443641 -0.19048707261 0.037453699347 -0.044591951551 0.0086390268809 0.038845535794 -0.0015567670795 
0.019798951085 0.040401127349 0.0076420378047 -0.078830096885 0.05744859893 0.00019912973901 -0.073359751146 0.048740936439 0.033533506534 
0.00042695319134 0.13846042764 0.029105660503 0.088754276994 0.22662720955 0.01755179333 -0.040956546694 0.26237529859 -0.077021290032 
-0.015825932323 -0.0093599622889 0.054880867859 0.012445841211 0.010247161759 0.022377678425 -0.055110835015 0.016838623604 0.044337729087 
-0.021953360345 0.025884201396 0.04599242959 -0.13444462905 -0.096310921272 -0.048121224652 -0.073813710025 0.08258838943 0.042032440437 
0.012718550083 0.067616469755 0.01425317236 0.096087284017 0.12261288527 -0.004294039915 -0.097613623005 0.14261836488 -0.069878233524 
-0.052806535397 0.024323413529 0.073682984456 -0.024108631974 0.052866387327 -0.0092589620461 -0.067244853967 0.04522047833 -0.011281584556 
-0.046543241901 0.073906791384 0.057776194531 -0.005644904192 0.11634111591 0.004857108426 -0.031250205073 0.21919385107 0.082559184695 
-0.00066328633309 0.27334262606 0.093316999735 -0.0096575554909 0.27005267014 0.0080604148417 -0.023837693753 0.013424326694 0.030482934101 
0.017418324533 0.057616216922 -0.030352324845 -0.013011560337 0.21057775716 -0.067361238852 0.035121297983 0.12847363527 0.096812815135 
-0.02568388976 0.17898130461 0.043235618101 0.049970442685 -0.065324642116 0.045880628903 -0.29508440245 -0.071096543414 -0.22995170811 
0.010421709988 0.032597662155 0.089304931032 -0.1632132347 0.016458060305 -0.098071338305 8.7304082862e-05 0.05658216547 0.0490846904 
-0.0032792434209 0.15987574977 -0.11366743156 -0.1093329276 0.013073293453 -0.054392005946 0.084560273476 0.0049494460269 0.023097140815 
0.17906924697 0.04465336239 0.12954131523 -0.084078667498 0.04976864582 -0.029746205785 -0.10514529648 0.01736526256 0.032910920883 
-0.023683525094 0.038479039595 0.077669425022 0.0073616794846 0.22860097262 0.0056379145434 0.011388376557 0.041364487349 -0.11565082641 
-0.041178332009 0.14957725344 0.14796284926 0.015727314557 0.021455075493 -0.0024677751594 0.095677381331 0.0044200649861 -0.086041273012 
0.12805066387 0.097112908791 0.070525714734 -0.0039167831326 0.051254836739 -0.001557137884 0.042602169189 0.089323789222 -0.065956124659 
0.088817694295 0.1124998154 -0.053149249242 -0.081077584478 0.27179021998 -0.19453844851 0.21273066105 0.083784470045 0.0040210919325 
-0.016476201133 0.099454444818 -0.084306564822 -0.011140416409 0.097767829241 -0.12921837017 0.086954209449 0.2526704874 -0.16366621469 
0.021048419661 0.14836727693 0.023197587498 0.13721431181 0.10181133851 -0.021435361436 0.021593665187 0.0095357454859 0.083271952659 
0.0720265258 0.092481050782 0.10567728676 0.079376475812 -0.018818510325 0.031957979724 0.028538407798 0.025056636625 -0.064268107381 
0.1287683514 0.19121853907 0.11076579337 0.068650783752 0.018026213225 0.060475464125 0.031590655792 0.043572963739 -0.02529784089 
0.10344903995 0.054815171856 -0.0038259629395 -0.033229108723 0.13146619811 -0.072439225811 -0.15104217532 0.21350433729 -0.08847513098 
-0.040935584861 0.0080659946873 -0.037605969439 0.13889610943 -0.022972110717 0.059703086428 0.029577089408 0.051621073356 0.036709279218 
-0.05241557277 -7.6474465414e-05 -0.038101718797 -0.019593090008 0.057115403233 0.099738465183 0.0094198569489 0.15103026516 -0.022541178981 
-0.0027343479842 0.020591615742 0.016982238916 -0.02456028625 0.011359228832 -0.0113720337 0.027032685635 0.021794619309 -0.024559164227 
-0.079995245439 -0.017084149868 -0.024509996072 -0.082935369571 0.12454513688 0.22031739751 0.014928890544 0.04441030584 -0.041816267398 
-0.047772226234 0.0132061549 0.03151757883 0.080529813377 0.0057628936695 0.0071294393731 -0.0096628145522 0.033629140474 0.017212347142 
0.0050733256563 0.016862138436 0.042681092749 -0.010215913331 0.035447076697 0.029717211007 -0.0019492195281 0.06894765178 0.027024499287 
0.049403257311 0.043097090476 -0.013412633032 0.017297158063 0.051523199259 0.034196204277 -0.0061600299512 0.11429591419 0.13432692073 
-0.029513261594 0.16173266479 0.02841832475 0.058714015235 0.0017270508604 -0.0052240249124 -0.029110559063 0.018207847277 -0.076876075613 
-0.0039913111495 0.045910097796 0.029473773607 0.058087612515 0.020893658911 0.057573748421 -0.19451755495 0.039668183639 -0.064885900376 
-0.021958819501 0.054191597684 0.048298013441 0.043123495637 0.038606691854 0.058239888712 -0.093883439559 0.14252171153 0.082969879669 
-0.00052740355422 0.38710693906 -0.0011288573072 0.045861773211 0.010416166083 0.066043061475 -0.046054797591 0.035397971386 0.092164701031 
0.040692486761 0.040028993819 0.016705036457 0.024759942221 0.078324211804 0.044473428344 -0.028734807798 0.24194419456 -0.0010331898798 
-0.0033120346244 0.036987221945 0.014520019751 -0.01446684177 0.032878853391 -0.0024533046815 -0.029776586761 -0.0047726680258 0.054791576141 
0.015763933914 0.0065948336356 0.094849352011 0.0058662362083 -0.0047575354982 0.1205492242 -0.0045435044424 0.026690186948 0.10070280318 
0.048689639876 0.084903789202 0.047570047855 0.012190777852 0.32929773123 0.012633784709 0.048787878444 0.025521855283 0.10157198777 
-0.012212897362 0.075823784745 -0.18361467497 -0.076416026534 0.17725342488 -0.024615689046 -0.018697854525 0.19836571032 0.034234384001 
-0.045326782014 0.03366302241 0.037439576723 0.047994318171 0.039418765254 0.071322416347 -0.14684183204 0.0079436499743 -0.079768840288 
0.031131950044 0.032706997154 0.10031977015 -0.05154172184 0.10765359284 0.035977243928 -0.13645977946 0.12244416595 0.087249181893 
0.044804293718 0.32049728826 -0.0062287931832 -0.00044574958215 0.029243049089 0.10201140501 0.08060329694 0.0325350987 0.01274380369 
-0.0033082998542 0.13377592098 -0.0033247496929 0.033991363402 0.19247764267 -0.017820487125 0.10242992302 0.085288386905 0.0090130720863 
0.084445824934 -0.027829691904 0.02430493986 -0.018673129003 0.22509155007 0.014510142177 -0.077949132161 0.1640541936 -0.025301185442 
0.042256730961 0.27150018908 0.1254322865 0.020188320678 0.34687093157 -0.00040929342903 0.086053560792 0.32893311383 -0.0017445639745 