# vtk DataFile Version 5.1
Generated by LIGGGHTS
ASCII
DATASET POLYDATA
POINTS 421 float
-0.139403 0.0561226 -0.144514 -0.143081 0.0697139 -0.144446 -0.0976724 0.0738979 -0.144232 
-0.0997887 0.085022 -0.144283 -0.0747509 0.0859846 -0.14412 -0.0501922 0.115329 -0.144313 
-0.117257 0.0559345 -0.142147 -0.0699581 0.0565018 -0.141861 -0.0232398 0.0812013 -0.138964 
-0.144939 0.0582224 -0.134688 -0.135165 0.0600924 -0.132822 -0.126353 0.058753 -0.1281 
-0.113094 0.0614465 -0.133556 -0.0472619 0.0622662 -0.13048 -0.13357 0.0762522 -0.132906 
-0.0633955 0.073298 -0.132364 -0.0294886 0.0729504 -0.128661 -0.0230613 0.101655 -0.134858 
-0.127336 0.137934 -0.131567 -0.142738 0.0553249 -0.120401 -0.114096 0.059419 -0.12268 
-0.0747295 0.0553451 -0.126836 -0.038604 0.0676267 -0.121622 -0.116361 0.0781342 -0.126665 
-0.00703597 0.0794529 -0.121542 -0.10583 0.093579 -0.122235 -0.0234241 0.116583 -0.125489 
-0.103937 0.0716484 -0.117018 -0.000584738 0.0882545 -0.115799 -0.0646582 0.115508 -0.11426 
-0.0181265 0.0565093 -0.110697 -0.0046112 0.0573726 -0.111698 -0.0286102 0.0621544 -0.1084 
-0.00841589 0.0675584 -0.10569 -0.0515959 0.0820891 -0.110304 -0.00669124 0.0821643 -0.108517 
-0.0807739 0.0886711 -0.111897 -0.0821447 0.143097 -0.110789 -0.00367365 0.0553 -0.101245 
-0.0851524 0.0624675 -0.0969351 -0.0764995 0.064028 -0.102889 -0.0474919 0.0657719 -0.0973324 
-0.0974242 0.0900198 -0.103955 -0.0615601 0.0898931 -0.100822 -0.00988506 0.0971244 -0.0980091 
-0.0376925 0.158473 -0.103091 -0.104148 0.198959 -0.0917136 -0.0426908 0.0794986 -0.0861654 
-0.0855238 0.0853375 -0.0849306 -0.0366207 0.0894268 -0.0871294 -0.0689842 0.12733 -0.0869868 
-0.0862438 0.149974 -0.0889079 -0.051051 0.176587 -0.0834214 -0.11228 0.0605293 -0.0752931 
-0.143729 0.0750852 -0.0783175 -0.0866294 0.0605534 -0.0670922 -0.0242454 0.0551583 -0.0711553 
-0.0848825 0.129367 -0.0727564 -0.0632583 0.153626 -0.0705097 -0.115328 0.172889 -0.0710476 
-0.0555834 0.0693255 -0.0667393 -0.0208035 0.0644391 -0.0636057 -0.116486 0.110501 -0.0614402 
-0.0209166 0.172548 -0.0623796 -0.0905919 0.0567427 -0.0570409 -0.0746778 0.0757455 -0.0600956 
-0.0122532 0.169974 -0.0528553 -0.00758386 0.0608745 -0.0453267 -0.107665 0.0652161 -0.047556 
-0.0791357 0.0712047 -0.0454446 -0.0552146 0.0894462 -0.0477998 -0.0302232 0.0997015 -0.0493932 
-0.129394 0.103983 -0.0474148 -0.0825843 0.161479 -0.0488306 -0.0529626 0.180243 -0.0495144 
-0.116199 0.0551057 -0.0426386 -0.0765555 0.0551937 -0.040465 -0.0381428 0.0767615 -0.0427136 
-0.00564436 0.0735064 -0.0441148 -0.0551888 0.0551136 -0.0316576 -0.117681 0.0716165 -0.0316784 
-0.0546992 0.0761475 -0.0329176 -0.00296068 0.0702554 -0.0296264 -0.040626 0.0849561 -0.0373486 
-0.104349 0.137898 -0.0326997 -0.127583 0.156213 -0.0307966 -0.138602 0.0571976 -0.0241067 
-0.0709518 0.0650873 -0.0288991 -0.0615567 0.0653514 -0.0244031 -0.129819 0.073648 -0.0288402 
-0.0456919 0.0778547 -0.0243693 -0.0492178 0.0683952 -0.0213553 -0.0896034 0.0793932 -0.0215068 
-0.0222035 0.0995181 -0.0165679 -0.0488331 0.132897 -0.019761 -0.138491 0.0553301 -0.0092308 
-0.0755201 0.062037 -0.0111419 -0.13602 0.0912488 -0.00851311 -0.144726 0.0976513 -0.0112836 
-0.0120014 0.126394 -0.0147235 -0.0170674 0.172451 -0.011331 -0.105901 0.0568025 -0.00694748 
-0.0786766 0.0568331 -0.000327539 -0.113598 0.061787 -0.00273106 -0.0134535 0.0817679 -0.00164906 
-0.0712346 0.0870168 -0.00461803 -0.129342 0.102807 -0.00238392 -0.0443232 0.139705 -0.00115547 
-0.0256913 0.171962 -0.00302864 -0.0968235 0.0659918 -9.87678e-05 -0.107811 0.198959 -0.095377 
-0.107811 0.198959 -0.0917136 -0.104148 0.198959 -0.095377 -0.121849 0.0608078 0.00527092 
-0.095504 0.0577985 0.00565664 -0.0490378 0.0559497 0.000161451 -0.133616 0.0613764 0.00444862 
-0.0839128 0.0792512 0.144659 -0.0170388 0.116055 0.00139197 -0.144429 0.058648 0.0131755 
-0.0540008 0.055024 0.0125405 -0.0375372 0.0610944 0.00927435 -0.105425 0.066467 0.00737601 
-0.113048 0.0705641 0.0140968 -0.0138388 0.0562191 0.0227026 -0.129639 0.0656558 0.0152305 
-0.118807 0.0654745 0.0205511 -0.0145566 0.066389 0.0185189 -0.00316322 0.0667925 0.0170227 
-0.0464173 0.0715081 0.016766 -0.107908 0.0901194 0.0157415 -0.0906067 0.0901044 0.0160405 
-0.133872 0.0550857 0.0250245 -0.0973562 0.0606773 0.0261203 -0.0515113 0.0566571 0.0271357 
-0.0831802 0.0644912 0.0243256 -0.132183 0.0763864 0.0296211 -0.0868841 0.146501 0.0242691 
-0.129543 0.0674889 0.037944 -0.0356825 0.0624995 0.0379624 -0.0271158 0.0687901 0.0301751 
-0.0242932 0.0842056 0.0347155 -0.0426969 0.120787 0.0365588 -0.102608 0.14812 0.0348805 
-0.100533 0.150555 0.14271 -0.123255 0.059103 0.0440454 -0.0662262 0.0590176 0.0390703 
-0.0164672 0.0564398 0.0411633 -0.0231225 0.0698436 0.0426491 -0.128725 0.100026 0.0436992 
-0.0660782 0.162621 0.0377727 -0.138056 0.0560093 0.0521015 -0.0888159 0.0561109 0.0461252 
-0.079056 0.057782 0.0485171 -0.0253431 0.0626705 0.0520658 -0.0897573 0.144787 0.0466454 
-0.0992462 0.152369 0.0494424 -0.0121208 0.0602089 0.0594796 -0.139204 0.0663135 0.0572564 
-0.111931 0.125215 0.0579185 -0.0401407 0.153255 0.0590509 -0.139661 0.0563608 0.0677634 
-0.0930155 0.081452 0.062157 -0.122552 0.0848673 0.0627042 -0.0700268 0.0943263 0.061874 
-0.106768 0.168453 0.062131 -0.0515676 0.177263 0.0620546 -0.0483736 0.0618971 0.0692638 
-0.0202808 0.0949344 0.0747905 -0.139651 0.170857 0.070875 -0.129512 0.166094 0.0744222 
-0.0517685 0.173337 0.0713181 -0.0870814 0.118528 0.077831 -0.0260893 0.16125 0.0819622 
-0.142069 0.1024 0.0857301 -0.0418957 0.135091 0.0872987 -0.141346 0.158328 0.0840536 
-0.120297 0.170776 0.0836254 -0.0531786 0.0638688 0.0950308 -0.111704 0.141394 0.0903283 
-0.0169162 0.142849 0.0973861 -0.0370939 0.0674611 0.103444 -0.0293999 0.097417 0.100731 
-0.12098 0.133367 0.0996402 -0.140335 0.152898 0.104456 -0.0811491 0.161271 0.100964 
-0.0299766 0.156209 0.100155 -0.0622665 0.103333 0.107299 -0.0542632 0.110978 0.106426 
-0.0704818 0.134914 0.111882 -0.0602284 0.093607 0.113587 -0.0759832 0.115597 0.117491 
-0.109689 0.132785 0.113556 -0.0416793 0.142131 0.114995 -0.0294086 0.145744 0.112907 
-0.0307604 0.056808 0.126528 -0.050266 0.125899 0.123128 -0.132002 0.137341 0.121333 
-0.122135 0.122229 0.130495 -0.0983934 0.122916 0.130013 -0.144979 0.0676669 0.140209 
-0.0772817 0.089548 0.139847 -0.0704114 0.0997688 0.135926 -0.0478799 0.128507 0.140752 
-0.0908233 0.0554837 0.143294 -0.0250012 0.062789 0.14491 -0.104148 0.20262 -0.0917138 
-0.104148 0.20262 -0.0953771 -0.107811 0.20262 -0.0953771 -0.107811 0.20262 -0.0917138 
-0.095034 0.226883 0.0529379 -0.095034 0.226881 0.0600197 -0.0879521 0.226884 0.0529379 
-0.0879522 0.226882 0.0600198 -0.095035 0.245593 0.0529404 -0.0950351 0.245591 0.0600222 
-0.0879532 0.245594 0.0529404 -0.0879532 0.245592 0.0600223 -0.0320062 0.206297 0.0328608 
-0.0320012 0.206317 0.0290024 -0.0320281 0.202438 0.0328453 -0.0320231 0.202459 0.0289869 
-0.0358646 0.206321 0.0328567 -0.0358596 0.206341 0.0289982 -0.0358865 0.202462 0.0328411 
-0.0358815 0.202482 0.0289827 0.013722 0.055125 -0.144883 0.0228663 0.0606563 -0.144738 
0.0421018 0.0570601 -0.142698 0.00432576 0.0658053 -0.144849 0.101452 0.0743435 -0.142866 
0.143977 0.0943974 -0.143811 0.124632 0.112834 -0.14419 0.106218 0.121915 -0.144761 
0.00706998 0.0554135 -0.136069 0.0316297 0.0552414 -0.138187 0.113253 0.0584167 -0.140213 
0.0519613 0.0642796 -0.135628 0.0660942 0.0748176 -0.139192 0.00762595 0.0810748 -0.139067 
0.0196912 0.0798365 -0.137439 0.0997435 0.0995842 -0.142332 0.0750961 0.0555612 -0.129226 
0.11072 0.0573746 -0.127955 0.0115567 0.066347 -0.130179 0.0265038 0.0620434 -0.131934 
0.0326946 0.0734862 -0.129118 0.0595173 0.0750054 -0.127808 0.0931893 0.0782935 -0.12978 
0.0387662 0.0632138 -0.12549 0.119816 0.127305 -0.122485 0.144452 0.0599299 -0.116715 
0.0826758 0.0656525 -0.115893 0.0249713 0.0765201 -0.117431 0.067746 0.0777719 -0.117925 
0.0996264 0.134708 -0.118017 0.029732 0.0572627 -0.10537 0.115646 0.0641513 -0.109095 
0.0586492 0.0866381 -0.107877 0.0335295 0.111887 -0.111001 0.117776 0.14334 -0.105001 
0.00402591 0.0682234 -0.0983367 0.0649085 0.064282 -0.100228 0.0678179 0.081672 -0.0980098 
0.0451539 0.106419 -0.104303 0.0379288 0.0586562 -0.0954202 0.0533285 0.0689 -0.0915727 
0.0258725 0.0721302 -0.0898157 0.0927078 0.125793 -0.0965725 0.136194 0.137816 -0.0934623 
0.0175928 0.0556799 -0.083163 0.047259 0.0570774 -0.082389 0.115521 0.0606149 -0.0843109 
0.136531 0.0558197 -0.0854934 0.00738769 0.0624706 -0.0838733 0.0400184 0.0711907 -0.085212 
0.0459144 0.0802107 -0.0863761 0.116389 0.0957421 -0.0846256 0.0706119 0.13233 -0.0871595 
0.0279559 0.0674466 -0.0755753 0.0145645 0.074455 -0.0830402 0.0927241 0.0809548 -0.0822597 
0.0696152 0.0948428 -0.0786906 0.0568682 0.109374 -0.0813609 0.0173905 0.0618384 -0.0738181 
0.0635207 0.0671862 -0.0734585 0.0378913 0.0937265 -0.0720615 0.109 0.122803 -0.0706149 
0.0791865 0.14246 -0.0732014 0.0117928 0.0607148 -0.0647954 0.0764546 0.0641272 -0.0604042 
0.0611719 0.115923 -0.0632657 0.0110336 0.125273 -0.0662481 0.053046 0.0919602 -0.0549582 
0.0271154 0.108252 -0.0529386 0.0500801 0.109951 -0.0545774 0.0853605 0.140152 -0.0564998 
0.116199 0.144597 -0.0556866 0.0658769 0.152215 -0.0535169 0.1235 0.0623292 -0.0474524 
0.142316 0.0708187 -0.0486121 0.0223687 0.0773687 -0.037864 0.144195 0.101843 -0.0430143 
0.0105983 0.123797 -0.0378937 0.0422077 0.126077 -0.0446648 0.0682014 0.133814 -0.040551 
0.0841556 0.140578 -0.0403937 0.0791487 0.0564173 -0.0315209 0.0484602 0.0860248 -0.0307176 
0.0216004 0.100598 -0.0344756 0.037376 0.161033 -0.0366634 0.111063 0.0572703 -0.0262331 
0.0407129 0.0654863 -0.0221233 0.0635685 0.0641281 -0.0238649 0.133456 0.0831437 -0.0295778 
0.0559786 0.0940615 -0.0228613 0.0707336 0.0939642 -0.0275735 0.135887 0.0971358 -0.024872 
0.046339 0.117552 -0.0254006 0.0190587 0.121135 -0.0269857 0.0427965 0.0746153 -0.0177459 
0.143605 0.0748806 -0.0158199 0.028983 0.0595473 -0.00847258 0.0885984 0.0752492 -0.00995621 
0.138353 0.0968928 -0.00889359 0.0382568 0.0569943 -0.00286713 0.117684 0.0595851 -0.00558942 
0.141024 0.074129 -0.00606484 0.0792494 0.0897332 -0.00387845 0.04906 0.112128 -0.00223878 
0.0099215 0.133028 -0.00685972 0.144713 0.128234 -0.00672919 0.070891 0.0570589 0.00549573 
0.13038 0.0676167 0.0024028 0.000104982 0.0834758 0.00278868 0.039384 0.152033 0.00775646 
0.115526 0.0620422 0.00946374 0.0719897 0.0704397 0.0112255 0.0946995 0.075597 0.0123866 
0.0243603 0.0846397 0.0112649 0.109715 0.0829294 0.00856421 0.123291 0.123549 0.010168 
0.0210676 0.128462 0.00957493 0.0873108 0.062727 0.0176595 0.103476 0.0638572 0.0192299 
0.105515 0.0588231 0.0296024 0.0406066 0.0622046 0.0261622 0.0720178 0.0719221 0.0263725 
0.0533344 0.0898661 0.0252066 0.0254867 0.123411 0.0241889 0.0804984 0.0600269 0.0306385 
0.0602496 0.0745473 0.0357352 0.111956 0.0726413 0.0321228 0.0161495 0.0914619 0.0365284 
0.039172 0.0889271 0.0351294 0.0758087 0.0553322 0.0417974 0.128776 0.0556119 0.0405819 
0.0601913 0.0655911 0.0444217 0.134623 0.0669283 0.0379309 0.0851278 0.0776311 0.0415128 
0.141693 0.0718358 0.0443176 0.0315408 0.15195 0.0388381 0.104913 0.152496 0.0430278 
0.0224018 0.0560972 0.0527901 0.135385 0.0652263 0.0514519 0.0191673 0.0755532 0.0473599 
0.0748996 0.0711769 0.0478583 0.0374083 0.0590354 0.0550081 0.109629 0.113034 0.0527068 
0.0852251 0.119479 0.0569815 0.0393388 0.132838 0.0553643 0.000870564 0.146038 0.0534893 
0.112814 0.0742345 0.0613135 0.000582045 0.139547 0.0629145 0.0996315 0.163041 0.0668893 
0.0327686 0.0570283 0.0701633 0.00329195 0.0741845 0.0751324 0.135274 0.157874 0.071558 
0.108268 0.172079 0.073845 0.0247954 0.0552203 0.0822313 0.124309 0.0841516 0.0779539 
0.0523783 0.155015 0.0767576 0.141088 0.0611853 0.0881574 0.118403 0.0686189 0.0870001 
0.0348255 0.0873047 0.0857933 0.0506933 0.103941 0.0849027 0.139015 0.125131 0.0836831 
0.00661738 0.0608126 0.0963311 0.138363 0.0713198 0.0922373 0.0138672 0.0944237 0.0910428 
0.0985659 0.101334 0.0920828 0.089393 0.143317 0.0903121 0.0581327 0.0590851 0.0991224 
0.111136 0.0730874 0.100756 0.00899405 0.0954419 0.101118 0.0993726 0.101069 0.106235 
0.0704747 0.142239 0.104628 0.137025 0.078457 0.107715 0.0553024 0.0895429 0.107031 
0.126964 0.106594 0.106787 0.0237445 0.123984 0.113263 0.0154271 0.0552746 0.119352 
0.068132 0.0996791 0.112826 0.0765461 0.157656 0.117415 0.0430345 0.170381 0.11682 
0.0894741 0.05589 0.122884 0.0237632 0.0634092 0.12794 0.0352402 0.089258 0.122025 
0.0664807 0.0887025 0.120791 0.0142022 0.16034 0.122619 0.0191956 0.0786226 0.132171 
0.0289306 0.0957496 0.13312 0.12838 0.163938 0.128507 0.126465 0.0596951 0.138002 
0.136772 0.0632394 0.138775 0.137109 0.0886252 0.139339 0.0806615 0.132047 0.139698 
0.04303 0.139238 0.136069 0.00370002 0.177228 0.139162 0.0140345 0.159822 0.14437 
0.11494 0.172855 0.14317 
VERTICES 422 421
OFFSETS vtktypeint64
0 1 2 3 4 5 6 7 8 
9 10 11 12 13 14 15 16 17 
18 19 20 21 22 23 24 25 26 
27 28 29 30 31 32 33 34 35 
36 37 38 39 40 41 42 43 44 
45 46 47 48 49 50 51 52 53 
54 55 56 57 58 59 60 61 62 
63 64 65 66 67 68 69 70 71 
72 73 74 75 76 77 78 79 80 
81 82 83 84 85 86 87 88 89 
90 91 92 93 94 95 96 97 98 
99 100 101 102 103 104 105 106 107 
108 109 110 111 112 113 114 115 116 
117 118 119 120 121 122 123 124 125 
126 127 128 129 130 131 132 133 134 
135 136 137 138 139 140 141 142 143 
144 145 146 147 148 149 150 151 152 
153 154 155 156 157 158 159 160 161 
162 163 164 165 166 167 168 169 170 
171 172 173 174 175 176 177 178 179 
180 181 182 183 184 185 186 187 188 
189 190 191 192 193 194 195 196 197 
198 199 200 201 202 203 204 205 206 
207 208 209 210 211 212 213 214 215 
216 217 218 219 220 221 222 223 224 
225 226 227 228 229 230 231 232 233 
234 235 236 237 238 239 240 241 242 
243 244 245 246 247 248 249 250 251 
252 253 254 255 256 257 258 259 260 
261 262 263 264 265 266 267 268 269 
270 271 272 273 274 275 276 277 278 
279 280 281 282 283 284 285 286 287 
288 289 290 291 292 293 294 295 296 
297 298 299 300 301 302 303 304 305 
306 307 308 309 310 311 312 313 314 
315 316 317 318 319 320 321 322 323 
324 325 326 327 328 329 330 331 332 
333 334 335 336 337 338 339 340 341 
342 343 344 345 346 347 348 349 350 
351 352 353 354 355 356 357 358 359 
360 361 362 363 364 365 366 367 368 
369 370 371 372 373 374 375 376 377 
378 379 380 381 382 383 384 385 386 
387 388 389 390 391 392 393 394 395 
396 397 398 399 400 401 402 403 404 
405 406 407 408 409 410 411 412 413 
414 415 416 417 418 419 420 421 
CONNECTIVITY vtktypeint64
0 1 2 3 4 5 6 7 8 
9 10 11 12 13 14 15 16 17 
18 19 20 21 22 23 24 25 26 
27 28 29 30 31 32 33 34 35 
36 37 38 39 40 41 42 43 44 
45 46 47 48 49 50 51 52 53 
54 55 56 57 58 59 60 61 62 
63 64 65 66 67 68 69 70 71 
72 73 74 75 76 77 78 79 80 
81 82 83 84 85 86 87 88 89 
90 91 92 93 94 95 96 97 98 
99 100 101 102 103 104 105 106 107 
108 109 110 111 112 113 114 115 116 
117 118 119 120 121 122 123 124 125 
126 127 128 129 130 131 132 133 134 
135 136 137 138 139 140 141 142 143 
144 145 146 147 148 149 150 151 152 
153 154 155 156 157 158 159 160 161 
162 163 164 165 166 167 168 169 170 
171 172 173 174 175 176 177 178 179 
180 181 182 183 184 185 186 187 188 
189 190 191 192 193 194 195 196 197 
198 199 200 201 202 203 204 205 206 
207 208 209 210 211 212 213 214 215 
216 217 218 219 220 221 222 223 224 
225 226 227 228 229 230 231 232 233 
234 235 236 237 238 239 240 241 242 
243 244 245 246 247 248 249 250 251 
252 253 254 255 256 257 258 259 260 
261 262 263 264 265 266 267 268 269 
270 271 272 273 274 275 276 277 278 
279 280 281 282 283 284 285 286 287 
288 289 290 291 292 293 294 295 296 
297 298 299 300 301 302 303 304 305 
306 307 308 309 310 311 312 313 314 
315 316 317 318 319 320 321 322 323 
324 325 326 327 328 329 330 331 332 
333 334 335 336 337 338 339 340 341 
342 343 344 345 346 347 348 349 350 
351 352 353 354 355 356 357 358 359 
360 361 362 363 364 365 366 367 368 
369 370 371 372 373 374 375 376 377 
378 379 380 381 382 383 384 385 386 
387 388 389 390 391 392 393 394 395 
396 397 398 399 400 401 402 403 404 
405 406 407 408 409 410 411 412 413 
414 415 416 417 418 419 420 
POINT_DATA 421
FIELD FieldData 8
id 1 421 int
3781 3801 3994 3970 3744 3884 3745 2648 3937 
3894 2739 3785 2755 2901 3823 3917 3749 3726 
3907 3024 3586 3931 3296 3023 3773 3987 3959 
3981 3025 3802 3844 3730 3852 3943 3903 3858 
3180 3403 3405 3757 3685 3960 3359 3830 3711 
3734 4023 3242 3908 3873 3976 3824 2756 3727 
3716 3814 3731 3949 3767 3026 3808 3877 3243 
3404 3360 3932 3181 2962 2961 3758 3686 3774 
2823 3687 2825 3853 3918 3738 2749 3961 3135 
2824 2482 3809 3878 3759 3297 3786 3919 3896 
3995 3787 3939 3244 3895 3925 3938 3815 3920 
3519 3133 3885 3746 3182 3879 3996 3951 3845 
3134 3971 4018 4019 4022 2902 3720 3975 3982 
3875 3953 3688 3962 3782 3831 3950 3810 3825 
3803 3835 2963 3940 3909 3988 3836 3631 3747 
3775 3955 3794 3854 3406 3587 3846 3989 3783 
3722 3760 3788 3847 3906 3728 3735 3863 3768 
3911 3461 2826 3769 3871 3864 3859 3795 3721 
3910 3941 3761 3299 2757 3136 3765 3245 3407 
2964 3904 3588 3776 3898 3736 3183 3754 3865 
3817 3954 2509 3886 3804 3748 2649 3997 3874 
3880 3963 3837 3933 3866 3855 3977 3984 3887 
3921 3897 3729 3956 3632 3690 3689 3848 4017 
4024 4020 4021 4002 4003 4006 4007 4004 4005 
4008 4001 4009 4016 4015 4014 4013 4012 4011 
4010 3899 3849 3161 3927 3900 3876 3905 3942 
3972 3818 3934 3838 3811 3952 3789 3957 3741 
3717 3978 3964 3762 3860 3440 2927 3965 3867 
2989 3922 3784 3944 3888 3945 3985 3796 3839 
3819 3755 3856 2867 3665 2591 3208 3666 3868 
3737 2748 3812 3869 3766 3770 3778 3712 3826 
3889 2481 3441 3840 3691 3805 3162 3881 3386 
3832 3966 3777 3262 3793 3806 3891 3797 3841 
3827 3813 2483 3850 3763 2751 2750 3929 3928 
3842 3324 3999 3915 3713 3851 3385 3723 3946 
3613 3614 3771 3973 3990 3991 3890 3714 3923 
3913 3779 3914 3442 3870 3901 3882 3912 3764 
3791 3263 3518 2690 3820 3732 2790 3828 3742 
3084 3718 3692 3979 3790 3667 3668 3986 3974 
3750 3998 3924 2484 3916 2928 3739 3947 3892 
3715 3756 3807 3298 3751 3719 3993 3926 3799 
4000 3821 3834 3833 3862 3520 3861 3325 3752 
3209 3843 3958 2752 3772 3930 3798 3443 3780 
2550 3326 3857 3980 3829 3968 2868 3983 3902 
3822 3733 3872 3992 3743 3792 3800 3753 3521 
3935 3883 2753 3725 3694 3969 3967 3724 3936 
3444 3693 3948 3893 2754 2990 3163 
type 1 421 int
2 2 2 2 2 2 2 2 2 
2 2 2 2 2 2 2 2 2 
2 2 2 2 2 2 2 2 2 
2 2 2 2 2 2 2 2 2 
2 2 2 2 2 2 2 2 2 
2 2 2 2 2 2 2 2 2 
2 2 2 2 2 2 2 2 2 
2 2 2 2 2 2 2 2 2 
2 2 2 2 2 2 2 2 2 
2 2 2 2 2 2 2 2 2 
2 2 2 2 2 2 2 2 2 
2 2 2 2 2 2 2 2 2 
2 2 2 2 2 2 2 2 2 
2 2 2 2 2 2 2 2 2 
2 2 2 2 2 2 2 2 2 
2 2 2 2 2 2 2 2 2 
2 2 2 2 2 2 2 2 2 
2 2 2 2 2 2 2 2 2 
2 2 2 2 2 2 2 2 2 
2 2 2 2 2 2 2 2 2 
2 2 2 2 2 2 2 2 2 
2 2 2 2 2 2 2 2 2 
2 2 2 2 2 2 2 2 2 
2 2 2 2 2 2 2 2 2 
2 2 2 2 2 2 2 2 2 
2 2 2 2 2 2 2 2 2 
2 2 2 2 2 2 2 2 2 
2 2 2 2 2 2 2 2 2 
2 2 2 2 2 2 2 2 2 
2 2 2 2 2 2 2 2 2 
2 2 2 2 2 2 2 2 2 
2 2 2 2 2 2 2 2 2 
2 2 2 2 2 2 2 2 2 
2 2 2 2 2 2 2 2 2 
2 2 2 2 2 2 2 2 2 
2 2 2 2 2 2 2 2 2 
2 2 2 2 2 2 2 2 2 
2 2 2 2 2 2 2 2 2 
2 2 2 2 2 2 2 2 2 
2 2 2 2 2 2 2 2 2 
2 2 2 2 2 2 2 2 2 
2 2 2 2 2 2 2 2 2 
2 2 2 2 2 2 2 2 2 
2 2 2 2 2 2 2 2 2 
2 2 2 2 2 2 2 2 2 
2 2 2 2 2 2 2 2 2 
2 2 2 2 2 2 2 
i 3 421 int
0 0 0 0 0 0 0 0 0 
0 0 0 0 0 0 0 0 0 
0 0 0 0 0 0 0 0 0 
0 0 0 0 0 0 0 0 0 
0 0 0 0 0 0 0 0 0 
0 0 0 0 0 0 0 0 0 
0 0 0 0 0 0 0 0 0 
0 0 0 0 0 0 0 0 0 
0 0 0 0 0 0 0 0 0 
0 0 0 0 0 0 0 0 0 
0 0 0 0 0 0 0 0 0 
0 0 0 0 0 0 0 0 0 
0 0 0 0 0 0 0 0 0 
0 0 0 0 0 0 0 0 0 
0 0 0 0 0 0 0 0 0 
0 0 0 0 0 0 0 0 0 
0 0 0 0 0 0 0 0 0 
0 0 0 0 0 0 0 0 0 
0 0 0 0 0 0 0 0 0 
0 0 0 0 0 0 0 0 0 
0 0 0 0 0 0 0 0 0 
0 0 0 0 0 0 0 0 0 
0 0 0 0 0 0 0 0 0 
0 0 0 0 0 0 0 0 0 
0 0 0 0 0 0 0 0 0 
0 0 0 0 0 0 0 0 0 
0 0 0 0 0 0 0 0 0 
0 0 0 0 0 0 0 0 0 
0 0 0 0 0 0 0 0 0 
0 0 0 0 0 0 0 0 0 
0 0 0 0 0 0 0 0 0 
0 0 0 0 0 0 0 0 0 
0 0 0 0 0 0 0 0 0 
0 0 0 0 0 0 0 0 0 
0 0 0 0 0 0 0 0 0 
0 0 0 0 0 0 0 0 0 
0 0 0 0 0 0 0 0 0 
0 0 0 0 0 0 0 0 0 
0 0 0 0 0 0 0 0 0 
0 0 0 0 0 0 0 0 0 
0 0 0 0 0 0 0 0 0 
0 0 0 0 0 0 0 0 0 
0 0 0 0 0 0 0 0 0 
0 0 0 0 0 0 0 0 0 
0 0 0 0 0 0 0 0 0 
0 0 0 0 0 0 0 0 0 
0 0 0 0 0 0 0 0 0 
0 0 0 0 0 0 0 0 0 
0 0 0 0 0 0 0 0 0 
0 0 0 0 0 0 0 0 0 
0 0 0 0 0 0 0 0 0 
0 0 0 0 0 0 0 0 0 
0 0 0 0 0 0 0 0 0 
0 0 0 0 0 0 0 0 0 
0 0 0 0 0 0 0 0 0 
0 0 0 0 0 0 0 0 0 
0 0 0 0 0 0 0 0 0 
0 0 0 0 0 0 0 0 0 
0 0 0 0 0 0 0 0 0 
0 0 0 0 0 0 0 0 0 
0 0 0 0 0 0 0 0 0 
0 0 0 0 0 0 0 0 0 
0 0 0 0 0 0 0 0 0 
0 0 0 0 0 0 0 0 0 
0 0 0 0 0 0 0 0 0 
0 0 0 0 0 0 0 0 0 
0 0 0 0 0 0 0 0 0 
0 0 0 0 0 0 0 0 0 
0 0 0 0 0 0 0 0 0 
0 0 0 0 0 0 0 0 0 
0 0 0 0 0 0 0 0 0 
0 0 0 0 0 0 0 0 0 
0 0 0 0 0 0 0 0 0 
0 0 0 0 0 0 0 0 0 
0 0 0 0 0 0 0 0 0 
0 0 0 0 0 0 0 0 0 
0 0 0 0 0 0 0 0 0 
0 0 0 0 0 0 0 0 0 
0 0 0 0 0 0 0 0 0 
0 0 0 0 0 0 0 0 0 
0 0 0 0 0 0 0 0 0 
0 0 0 0 0 0 0 0 0 
0 0 0 0 0 0 0 0 0 
0 0 0 0 0 0 0 0 0 
0 0 0 0 0 0 0 0 0 
0 0 0 0 0 0 0 0 0 
0 0 0 0 0 0 0 0 0 
0 0 0 0 0 0 0 0 0 
0 0 0 0 0 0 0 0 0 
0 0 0 0 0 0 0 0 0 
0 0 0 0 0 0 0 0 0 
0 0 0 0 0 0 0 0 0 
0 0 0 0 0 0 0 0 0 
0 0 0 0 0 0 0 0 0 
0 0 0 0 0 0 0 0 0 
0 0 0 0 0 0 0 0 0 
0 0 0 0 0 0 0 0 0 
0 0 0 0 0 0 0 0 0 
0 0 0 0 0 0 0 0 0 
0 0 0 0 0 0 0 0 0 
0 0 0 0 0 0 0 0 0 
0 0 0 0 0 0 0 0 0 
0 0 0 0 0 0 0 0 0 
0 0 0 0 0 0 0 0 0 
0 0 0 0 0 0 0 0 0 
0 0 0 0 0 0 0 0 0 
0 0 0 0 0 0 0 0 0 
0 0 0 0 0 0 0 0 0 
0 0 0 0 0 0 0 0 0 
0 0 0 0 0 0 0 0 0 
0 0 0 0 0 0 0 0 0 
0 0 0 0 0 0 0 0 0 
0 0 0 0 0 0 0 0 0 
0 0 0 0 0 0 0 0 0 
0 0 0 0 0 0 0 0 0 
0 0 0 0 0 0 0 0 0 
0 0 0 0 0 0 0 0 0 
0 0 0 0 0 0 0 0 0 
0 0 0 0 0 0 0 0 0 
0 0 0 0 0 0 0 0 0 
0 0 0 0 0 0 0 0 0 
0 0 0 0 0 0 0 0 0 
0 0 0 0 0 0 0 0 0 
0 0 0 0 0 0 0 0 0 
0 0 0 0 0 0 0 0 0 
0 0 0 0 0 0 0 0 0 
0 0 0 0 0 0 0 0 0 
0 0 0 0 0 0 0 0 0 
0 0 0 0 0 0 0 0 0 
0 0 0 0 0 0 0 0 0 
0 0 0 0 0 0 0 0 0 
0 0 0 0 0 0 0 0 0 
0 0 0 0 0 0 0 0 0 
0 0 0 0 0 0 0 0 0 
0 0 0 0 0 0 0 0 0 
0 0 0 0 0 0 0 0 0 
0 0 0 0 0 0 0 0 0 
0 0 0 0 0 0 0 0 0 
0 0 0 0 0 0 0 0 0 
0 0 0 0 0 0 0 0 0 
0 0 0 
v 3 421 double
0.011437581343 0.0064495035338 -0.011133559874 0.010048934566 -0.00070430313784 0.0034683114765 -0.015970077835 0.15166809512 0.0078683031147 
-0.13317801248 0.16221021249 0.0070055395523 0.0084999301845 0.1323890659 0.0081926522313 0.0041098429884 0.30328549985 0.0085481915591 
-0.0056303209371 0.0085283445581 0.016039859049 -0.027173646627 0.011902077028 0.021408443641 0.00042695319134 0.13846042764 0.029105660503 
0.0046274359853 0.008066801115 -0.0032981339191 0.0086390268809 0.038845535794 -0.0015567670795 -0.021953360345 0.025884201396 0.04599242959 
-0.015825932323 -0.0093599622889 0.054880867859 0.019798951085 0.040401127349 0.0076420378047 -0.027682094838 0.035560805087 0.07204171858 
-0.078830096885 0.05744859893 0.00019912973901 -0.19048707261 0.037453699347 -0.044591951551 0.088754276994 0.22662720955 0.01755179333 
0 0.410001241 0 0.012445841211 0.010247161759 0.022377678425 -0.052806535397 0.024323413529 0.073682984456 
-0.055110835015 0.016838623604 0.044337729087 0.012718550083 0.067616469755 0.01425317236 -0.032235806057 0.015450186834 0.090000174597 
-0.046543241901 0.073906791384 0.057776194531 -0.031250205073 0.21919385107 0.082559184695 -0.00066328633309 0.27334262606 0.093316999735 
0.096087284017 0.12261288527 -0.004294039915 0.080083059495 0.1932706412 -0.029612981518 -0.040956546694 0.26237529859 -0.077021290032 
-0.023837693753 0.013424326694 0.030482934101 -0.0073663242247 0.069707047504 -0.21902865838 -0.024108631974 0.052866387327 -0.0092589620461 
0.010421709988 0.032597662155 0.089304931032 0.035121297983 0.12847363527 0.096812815135 0.0527175037 0.1461298439 -0.014994661505 
-0.005644904192 0.11634111591 0.004857108426 -0.0096575554909 0.27005267014 0.0080604148417 0.25756245549 -0.015135834357 -0.069742482745 
0.17906924697 0.04465336239 0.12954131523 0.12933529232 0.042588217061 0.051919416551 -0.097092786944 0.060812066546 0.13240196031 
-0.097613623005 0.14261836488 -0.069878233524 -0.02568388976 0.17898130461 0.043235618101 0.15312727312 0.17656285951 -0.0069606360303 
0 0.39896583638 0 -0.00040094841378 0.5078504458 -0.067335249535 8.7304082862e-05 0.05658216547 0.0490846904 
-0.21558529215 -0.019513045433 -0.17941226195 -0.041178332009 0.14957725344 0.14796284926 -0.00010155981897 0.4026845298 0.00010091191765 
0 0.4099646538 0 0 0.39895779965 -0.0048950405667 -0.023683525094 0.038479039595 0.077669425022 
0.084560273476 0.0049494460269 0.023097140815 0.11795535952 0.0097730096812 0.18953233749 -0.12936023577 -0.043487840632 0.063024878278 
0 0.39875905054 0 -0.004507024569 0.40045571211 -0.019038581245 -1.4485258125e-05 0.39873630553 -3.634419112e-05 
0.022134701501 0.099469048355 -0.23615431165 -0.051741169069 0.04058371722 -0.053836692909 0.0073616794846 0.22860097262 0.0056379145434 
0.013750131286 0.41310435568 -0.010249234026 -0.099909780889 0.037548871686 -0.10337260641 0.0048568421874 0.08945452959 -0.10391745121 
-0.0006249839803 0.39654364795 -0.0035443033661 -0.0039167831326 0.051254836739 -0.001557137884 0.0720265258 0.092481050782 0.10567728676 
0.21273066105 0.083784470045 0.0040210919325 -0.082935369571 0.12454513688 0.22031739751 0.1287683514 0.19121853907 0.11076579337 
0.048239276178 0.099225294711 0.24497616456 0 0.39374558319 -0.0047274651976 0 0.41049660782 0 
0.021593665187 0.0095357454859 0.083271952659 0.016865480206 0.009155321853 -0.074806218358 -0.30322048806 -0.00067532323441 -0.23970168846 
-0.035862658324 0.090291244517 0.064308977049 0.095677381331 0.0044200649861 -0.086041273012 0.011388376557 0.041364487349 -0.11565082641 
0.14831821886 0.096433713588 0.0054818525004 -0.019593090008 0.057115403233 0.099738465183 0.088817694295 0.1124998154 -0.053149249242 
0 0.39904491296 0 0 0.40508628054 1.1391752074e-05 0.030768952669 0.038366551808 0.3088595884 
0.15621356275 -0.0050176625416 0.10500660734 0.051333330431 7.1765048961e-05 0.015171943212 -0.10659233928 0.13529730026 -0.13355815864 
0.11689517866 0.034012877468 -0.026184469839 0.11173750803 0.065437441398 -0.013712116863 -0.016476201133 0.099454444818 -0.084306564822 
-0.011140416409 0.097767829241 -0.12921837017 0 0.38773520475 0 0.046836046932 0.038295668143 -0.065266407339 
0.031590655792 0.043572963739 -0.02529784089 0.0094198569489 0.15103026516 -0.022541178981 -0.046529066699 0.16886131934 -0.089104186401 
-0.081077584478 0.27179021998 -0.19453844851 -0.0030995011966 0.4005287818 -0.0015598553611 -0.040935584861 0.0080659946873 -0.037605969439 
-0.02456028625 0.011359228832 -0.0113720337 -0.05241557277 -7.6474465414e-05 -0.038101718797 -0.033229108723 0.13146619811 -0.072439225811 
-0.0061600299512 0.11429591419 0.13432692073 -0.3079784592 0.20546468663 -0.29548681616 -0.018713004647 0.38875185117 7.8913229596e-15 
0.0017389604782 0.39882328398 -0.0017389604782 -0.079995245439 -0.017084149868 -0.024509996072 -0.026386994373 0.50711604839 -0.093320357598 
-0.026386571368 0.50774069317 -0.067335214344 -0.00040144702115 0.5072258665 -0.093321242989 -0.041395108312 0.030254707256 -0.015962865519 
-0.047772226234 0.0132061549 0.03151757883 0.027032685635 0.021794619309 -0.024559164227 0.019787213071 -0.021501967877 -0.04342603547 
-0.066149991525 0.065765809604 -0.020818425339 -0.15104217532 0.21350433729 -0.08847513098 0.0050133738183 0.03415893043 0.0051985059679 
0.080529813377 0.0057628936695 0.0071294393731 0.077184004256 0.066064098953 0.077633274331 -0.04239299415 0.032731008683 -0.025360640441 
0.006069576639 0.039127362139 0.043807565819 0.073524872124 -0.0089080269211 0.085640873075 -0.0094375276358 0.047072839183 -0.0043676764478 
0.0072362702748 0.058305934916 0.019862412065 0.14414420127 0.070733586407 0.116579113 0.08384646776 0.068416862212 0.012924444158 
0.058087612515 0.020893658911 0.057573748421 -0.093883439559 0.14252171153 0.082969879669 -0.029513261594 0.16173266479 0.02841832475 
0.058714015235 0.0017270508604 -0.0052240249124 -0.046054797591 0.035397971386 0.092164701031 0.045861773211 0.010416166083 0.066043061475 
-0.021958819501 0.054191597684 0.048298013441 0.024759942221 0.078324211804 0.044473428344 -0.0021049833578 0.38899466784 -0.000126565171 
-0.065001341762 0.019554148352 0.081816480773 0.0058662362083 -0.0047575354982 0.1205492242 0.026945964456 0.018330502396 0.0051605768176 
0.13707801014 0.10385176188 0.11392848556 -0.00052740355422 0.38710693906 -0.0011288573072 -0.0020887119363 0.38986351732 -0.0070491576428 
-0.22880268682 0.26789886558 -0.019808350501 -0.055878085168 0.018552676409 0.077319089015 -0.0096835260449 0.035256949499 0.052062394919 
-0.029110559063 0.018207847277 -0.076876075613 -0.20612077071 0.03697736462 -0.10285249585 -0.028734807798 0.24194419456 -0.0010331898798 
0 0.41007381017 0 0.048787878444 0.025521855283 0.10157198777 0.041737892857 0.0073860254482 0.11542297028 
0.021090019239 0.040968074452 -0.041410956983 0.17678183662 0.045691837597 0.11687765623 -0.0016610994383 0.29654940525 0.0087496036546 
0.0020429030869 0.39521847008 -0.0010600737839 -0.036678867017 0.018828960769 0.032514711551 -0.1805049794 0.05781629622 -0.033949824544 
0.012190777852 0.32929773123 0.012633784709 0 0.41052549956 0 0.047994318171 0.039418765254 0.071322416347 
-0.13645977946 0.12244416595 0.087249181893 0.031131950044 0.032706997154 0.10031977015 -0.018697854525 0.19836571032 0.034234384001 
0 0.39882697079 0 0.00010325432685 0.40108221516 -0.0062223017539 -0.00044574958215 0.029243049089 0.10201140501 
-0.076416026534 0.17725342488 -0.024615689046 0.00056348824668 0.40152978625 0.00027402949384 0.0023122065005 0.39628274053 0.0023597342796 
-0.00010325432685 0.39693094846 -0.0034834038764 0.044804293718 0.32049728826 -0.0062287931832 0 0.38755395842 -0.0050852537353 
0.08060329694 0.0325350987 0.01274380369 0.0002814165965 0.39586236908 -0.0042450652735 0 0.39872827304 0 
-8.0938774001e-06 0.39894161244 0 0.16820795446 0.029549338883 0.12446726565 -0.00036883905222 0.40129851273 -0.0077537456699 
0 0.38761842277 0 -0.012212897362 0.075823784745 -0.18361467497 -0.0033082998542 0.13377592098 -0.0033247496929 