# vtk DataFile Version 5.1
Generated by LIGGGHTS
ASCII
DATASET POLYDATA
POINTS 1086 float
-0.137164 0.0560859 -0.144056 -0.140468 0.0695308 -0.143545 -0.0139757 0.0731966 -0.14358 
-0.134415 0.127197 -0.142461 -0.143735 0.0603198 -0.135546 -0.118721 0.0581518 -0.137977 
-0.0770233 0.0595964 -0.136295 -0.000466891 0.0637792 -0.138957 -0.0790153 0.0826883 -0.140255 
-0.00220679 0.101112 -0.137846 -0.101825 0.113332 -0.142187 -0.0725409 0.120406 -0.14199 
-0.0491236 0.194183 -0.14209 -0.132919 0.0701922 -0.133227 -0.0421142 0.0727705 -0.128493 
-0.0838913 0.0882346 -0.132312 -0.0114476 0.0937474 -0.130348 -0.0231288 0.117201 -0.131397 
1.4795e-05 0.160578 -0.130295 -0.0753069 0.183726 -0.134286 -0.140436 0.0702377 -0.12274 
-0.122804 0.127101 -0.122123 -0.139502 0.0579892 -0.114583 -0.117209 0.0590129 -0.119287 
-0.0890583 0.0597232 -0.115308 -0.132061 0.0654829 -0.116142 -0.14424 0.0890424 -0.116442 
-0.0352972 0.085207 -0.117916 -0.0789548 0.103528 -0.118135 -0.0348784 0.0758997 -0.110807 
-0.12241 0.0886332 -0.109836 -0.0191372 0.0986686 -0.10652 -0.0822416 0.11892 -0.110634 
-0.0243243 0.0599996 -0.102772 -0.127826 0.065743 -0.103522 -0.115725 0.0656641 -0.103528 
-0.0603996 0.0774539 -0.102259 -0.113955 0.150569 -0.10077 -0.0235965 0.187652 -0.101227 
-0.0568068 0.1172 -0.0946828 -0.0482302 0.0572179 -0.0834958 -0.0364723 0.0669889 -0.0862134 
-0.00570624 0.0760338 -0.0824709 -0.07467 0.109926 -0.0886218 -0.0424644 0.115492 -0.0851323 
-0.0682379 0.136428 -0.089581 -0.0363171 0.0755744 -0.0760687 -0.11891 0.0604166 -0.0717327 
-0.121744 0.0763721 -0.0723122 -0.0426681 0.09421 -0.0734034 -0.0516958 0.0593991 -0.0624617 
-0.0385944 0.0740774 -0.0632544 -0.11472 0.0823713 -0.0617476 -0.114572 0.169937 -0.0599743 
-0.0330815 0.197059 -0.0653035 -0.0303127 0.0562628 -0.0540283 -0.118437 0.0705339 -0.0550991 
-0.140099 0.103449 -0.0556526 -0.0723524 0.0581715 -0.0476709 -0.00860223 0.0742007 -0.0457315 
-0.0175334 0.114206 -0.0511674 -0.047327 0.128317 -0.0486591 -0.0251 0.124938 -0.0501647 
-0.127781 0.169522 -0.0524191 -0.0535034 0.0798529 -0.0418948 -0.0238258 0.0929887 -0.0443991 
-0.0938872 0.105251 -0.0434265 -0.0113495 0.100686 -0.0300161 -0.0183857 0.102311 -0.0369522 
-0.110156 0.0579186 -0.0238488 -0.00257777 0.065672 -0.0248353 -0.0134691 0.0852176 -0.0259347 
-0.138643 0.107341 -0.0286667 -0.0673065 0.073366 -0.0177194 -0.023366 0.0820951 -0.0220815 
-0.088938 0.0892612 -0.0200799 -0.0220931 0.115949 -0.0204833 -0.0563097 0.171567 -0.0216116 
-0.125917 0.061045 -0.0118635 -0.117129 0.0572598 -0.0149354 -0.0257783 0.0594518 -0.00904793 
-0.1322 0.0711319 -0.011514 -0.052768 0.0697009 -0.0130078 -0.133571 0.130517 -0.0143738 
-0.13779 0.0589382 -0.00065765 -0.0850623 0.0597865 -0.00328427 -0.0420093 0.0616163 -0.00622393 
-0.117466 0.0628561 -0.00540013 -0.108542 0.0765789 -0.00149017 -0.00805488 0.0851054 -0.00369436 
-0.107925 0.0612321 0.0138512 -0.0330631 0.0565224 0.0143941 -0.120737 0.0708334 0.00989029 
-0.0767778 0.121828 0.00948269 -0.116851 0.129781 0.016279 -0.024036 0.0611738 0.0211755 
-0.144411 0.0674827 0.0155809 -0.133298 0.0657282 0.0160768 -0.0214537 0.0749695 0.0163828 
-0.130928 0.0812959 0.0189874 -0.118606 0.0555347 0.0236662 -0.119819 0.0774373 0.0281892 
-0.108576 0.0839339 0.0230129 -0.074006 0.0800849 0.0247612 -0.0728362 0.116734 0.030307 
-0.0982801 0.132155 0.0234292 -0.0313145 0.0769404 0.0317351 -0.0188335 0.0762303 0.0357393 
-0.0888895 0.078581 0.0368831 -0.132318 0.127175 0.0373137 -0.0395872 0.0593653 0.0443069 
-0.125746 0.0967507 0.0411842 -0.136196 0.162932 0.0434306 -0.0764963 0.06773 0.049715 
-0.0591932 0.0690894 0.0458929 -0.138568 0.0746555 0.0461048 -0.10933 0.0698807 0.0500831 
-0.0402693 0.0871753 0.0557046 -0.135481 0.0618759 0.0621578 -0.00940603 0.0837339 0.0662185 
-0.0845912 0.0578299 0.070884 -0.0351996 0.0609773 0.067453 -0.138914 0.0719819 0.0698586 
-0.0748883 0.145901 0.0707749 -0.040149 0.14102 0.0683904 -0.00722172 0.0573659 0.0783322 
-0.124818 0.0626283 0.0777356 -0.0305192 0.0631632 0.0774434 -0.123498 0.113571 0.0784827 
-0.0735356 0.199989 0.0781154 -0.127737 0.0666264 0.0870818 -0.114457 0.0933711 0.0887873 
-0.0101089 0.102174 0.0844864 -0.0484895 0.0695003 0.0957868 -0.0112043 0.0760356 0.0917096 
-0.126109 0.110575 0.0954026 -0.03026 0.132199 0.0998661 -0.0534288 0.153377 0.102666 
-0.0185372 0.0792459 0.111427 -0.0168141 0.0563702 0.118795 -0.0650834 0.152131 0.11736 
-0.0906782 0.142423 0.129348 -0.113791 0.0707515 0.141443 -0.101112 0.0963503 0.139246 
-0.0947518 0.109949 0.140956 -0.0432764 0.181568 0.139038 -0.111114 0.0586861 0.142653 
-0.0813054 0.190079 0.143549 -0.0470505 0.193793 0.142969 -0.0773394 0.199999 0.0743092 
-0.0773405 0.200001 0.0781141 -0.0735344 0.199987 0.0743105 -0.132121 0.230847 -0.136353 
-0.122551 0.230847 -0.136353 -0.132121 0.258221 -0.136353 -0.122551 0.258221 -0.136353 
-0.132121 0.230847 -0.126782 -0.122551 0.230847 -0.126782 -0.132121 0.258221 -0.126782 
-0.122551 0.258221 -0.126782 -0.118535 0.30255 -0.123494 -0.100384 0.302569 -0.123493 
-0.118563 0.365311 -0.123654 -0.100412 0.36533 -0.123654 -0.0878308 0.206477 -0.111894 
-0.0878308 0.20646 -0.105516 -0.0814529 0.206479 -0.105516 -0.0814529 0.206497 -0.111894 
-0.0878584 0.220142 -0.111869 -0.0878583 0.220125 -0.105492 -0.0814805 0.220144 -0.105492 
-0.0814805 0.220161 -0.11187 -0.0437748 0.243167 -0.109173 -0.0316101 0.243167 -0.109173 
-0.0437748 0.28124 -0.109173 -0.0316101 0.28124 -0.109173 -0.118563 0.36542 -0.105503 
-0.100412 0.36544 -0.105503 -0.118535 0.30266 -0.105342 -0.100384 0.302679 -0.105342 
-0.072996 0.221633 -0.0909498 -0.0650217 0.221633 -0.0909464 -0.0918273 0.239586 -0.0944914 
-0.0806603 0.239586 -0.0944914 -0.0729961 0.242424 -0.090949 -0.0650219 0.242424 -0.0909457 
-0.0437748 0.243167 -0.0970082 -0.0316101 0.243167 -0.0970082 -0.0584304 0.255926 -0.0920688 
-0.0436716 0.255926 -0.0920688 -0.0918273 0.273544 -0.0944914 -0.0806603 0.273544 -0.0944914 
-0.0437748 0.28124 -0.0970082 -0.0316101 0.28124 -0.0970082 -0.0584304 0.3047 -0.0920782 
-0.0436716 0.3047 -0.0920782 -0.0729993 0.221632 -0.0829755 -0.0650251 0.221632 -0.0829722 
-0.0918273 0.239586 -0.0833244 -0.0806603 0.239586 -0.0833244 -0.074123 0.240845 -0.0844895 
-0.0650252 0.242423 -0.0829714 -0.0918273 0.273544 -0.0833244 -0.0806603 0.273544 -0.0833244 
-0.0889693 0.222238 -0.0768433 -0.0807956 0.222238 -0.0768433 -0.0586447 0.239908 -0.0811896 
-0.0889693 0.243852 -0.0768433 -0.0807956 0.243852 -0.0768433 -0.0690873 0.241464 -0.0796475 
-0.12249 0.253402 -0.0780485 -0.10833 0.253406 -0.0782106 -0.0543837 0.258602 -0.0796052 
-0.0436716 0.255935 -0.0773094 -0.0702429 0.275489 -0.0812959 -0.0627235 0.272845 -0.0790276 
-0.122496 0.299704 -0.0780636 -0.108336 0.299708 -0.0782258 -0.0584304 0.304704 -0.07732 
-0.0436716 0.304704 -0.07732 -0.0889693 0.222238 -0.0686695 -0.0807956 0.222238 -0.0686695 
-0.0701833 0.239977 -0.069596 -0.0586172 0.239999 -0.0696235 -0.0889693 0.243852 -0.0686695 
-0.0807956 0.243852 -0.0686695 -0.0245529 0.256405 -0.0722114 -0.0101932 0.256308 -0.0721311 
-0.0702155 0.275581 -0.0697298 -0.0586494 0.275603 -0.0697573 -0.0244097 0.30353 -0.0723174 
-0.01005 0.303433 -0.0722371 -0.122327 0.253412 -0.0638883 -0.108167 0.253416 -0.0640505 
-0.00550236 0.25074 -0.060613 -0.0192687 0.295392 -0.0607017 -0.00550768 0.295396 -0.0606413 
-0.122333 0.299715 -0.0639035 -0.108173 0.299719 -0.0640656 -0.0888662 0.243988 -0.0563374 
-0.0763024 0.243988 -0.0563374 -0.0181255 0.249641 -0.0584621 -0.0606414 0.261352 -0.0571931 
-0.0452839 0.261352 -0.0571931 -0.0246332 0.256478 -0.0578516 -0.0114113 0.257476 -0.0599827 
-0.0888662 0.283711 -0.0563459 -0.0763024 0.283711 -0.0563459 -0.02449 0.303603 -0.0579577 
-0.0101303 0.303505 -0.0578774 -0.0606414 0.312592 -0.0571931 -0.0452839 0.312592 -0.0571931 
-0.0193238 0.250755 -0.0469123 -0.0055626 0.250759 -0.046852 -0.0193291 0.295412 -0.0469405 
-0.00556791 0.295415 -0.0468802 -0.0888662 0.243998 -0.0437732 -0.0763024 0.243998 -0.0437732 
-0.0606414 0.261352 -0.0418357 -0.0452839 0.261352 -0.0418357 -0.0888662 0.283713 -0.0437824 
-0.0763024 0.283713 -0.0437824 -0.0606414 0.312592 -0.0418357 -0.0452839 0.312592 -0.0418357 
-0.109034 0.228374 -0.0373853 -0.0996631 0.228374 -0.0373853 -0.133565 0.242912 -0.0367764 
-0.1216 0.242912 -0.0367764 -0.109034 0.254926 -0.0373853 -0.0996631 0.254926 -0.0373853 
-0.133565 0.28016 -0.036776 -0.1216 0.28016 -0.036776 -0.00913402 0.212856 -0.0254135 
-0.0530198 0.22249 -0.0239477 -0.0446464 0.22249 -0.0239477 -0.109034 0.228374 -0.0280142 
-0.0996631 0.228374 -0.0280142 -0.00879733 0.228878 -0.0250364 -0.133565 0.24291 -0.0248112 
-0.1216 0.24291 -0.0248112 -0.0530198 0.244927 -0.0239477 -0.0446464 0.244927 -0.0239477 
-0.109034 0.254926 -0.0280142 -0.0996631 0.254926 -0.0280142 -0.0235861 0.25363 -0.0229874 
-0.133565 0.280162 -0.0248109 -0.1216 0.280162 -0.0248109 -0.00914352 0.212381 -0.0184377 
-0.0530198 0.22249 -0.0155744 -0.0446464 0.22249 -0.0155744 -0.00882742 0.228371 -0.0180607 
-0.0530198 0.244927 -0.0155744 -0.0446464 0.244927 -0.0155744 -0.0106553 0.253445 -0.0186901 
-0.0245807 0.299802 -0.0197065 -0.0106991 0.299748 -0.0187113 -0.0538383 0.227466 -0.0138458 
-0.0444672 0.227544 -0.0138328 -0.05391 0.254046 -0.0138328 -0.0445389 0.254067 -0.0138459 
-0.0333597 0.253556 -0.0101834 -0.0166122 0.254732 -0.0107998 -0.0323176 0.297702 -0.0105626 
-0.0156654 0.301551 -0.0139917 -0.0257483 0.252362 -0.0043729 -0.0106077 0.253476 -0.00462823 
-0.0277941 0.295818 -0.000781152 -0.010931 0.299762 -0.00455133 -0.032321 0.253612 0.00360107 
-0.0194789 0.253377 0.00724087 -0.0323175 0.297705 0.00359757 -0.0182249 0.29768 0.00378787 
-0.0538382 0.227495 0.0115349 -0.0444672 0.227515 0.0115218 -0.05391 0.254018 0.0115218 
-0.0445389 0.254095 0.0115349 -0.0926449 0.232303 0.0190862 -0.0822761 0.232311 0.0190169 
-0.0926559 0.26297 0.0190867 -0.0822872 0.262977 0.0190175 -0.0925758 0.232303 0.0294549 
[...]
POINT_DATA 1086
FIELD FieldData 8
id 1 1086 int
3781 3801 3730 3970 3894 3745 2648 3927 3749 
3789 3994 3744 3884 2739 2901 3917 3952 3937 
3726 3802 3023 3359 3024 2755 3931 3785 3823 
3296 3981 3852 3908 3773 3180 3844 3586 3738 
3685 3987 3959 3808 3960 3966 3943 3932 3903 
3830 3877 3360 3716 3242 3731 3757 3135 3243 
3519 3961 3727 3896 3918 2962 3809 3873 3244 
3951 3814 3758 3939 2749 2824 3853 3714 3995 
3920 3938 3787 2961 3879 3953 3182 3885 3919 
3297 3786 3815 3925 3746 3975 3971 3831 2482 
3720 3962 2902 3686 2823 3847 3688 3982 3782 
3825 3836 3803 3950 3906 3996 3988 3940 3587 
3775 3909 3747 3955 3728 3911 3788 3854 3631 
3954 3760 3461 3768 3406 3864 3761 3765 3871 
3863 2550 3910 4775 3721 3941 3325 3136 3968 
3776 2509 3997 3754 3977 3963 3632 3729 3875 
3956 3874 3689 3837 3690 4770 4771 4774 4442 
4446 4444 4448 4443 4447 4445 4441 4018 4022 
4020 4024 4690 4691 4695 4694 4692 4693 4689 
4696 4226 4230 4228 4232 4021 4017 4019 4023 
4602 4606 4330 4334 4604 4608 4227 4231 4042 
4046 4332 4336 4229 4225 4044 4048 4603 4607 
4331 4335 4605 4601 4333 4329 4594 4598 4286 
4596 4600 4282 4084 4088 4043 4047 4284 4288 
4086 4090 4045 4041 4595 4599 4283 4287 4597 
4593 4058 4062 4285 4281 4060 4064 4085 4089 
4142 4140 4144 4087 4091 4194 4198 4138 4026 
4030 4059 4063 4196 4200 4061 4057 4028 4032 
4139 4143 4141 4137 4195 4199 4027 4031 4197 
4193 4029 4025 4475 4479 4258 4262 4477 4481 
4260 4264 4658 4578 4582 4476 4480 4660 4259 
4263 4580 4584 4478 4482 4092 4261 4257 4659 
4579 4583 4661 4581 4577 4096 4094 4074 4483 
4487 4485 4474 4076 4093 4078 4095 4080 4075 
4082 4073 4077 4081 4079 4083 4484 4488 4486 
4473 4362 4366 4364 4368 4363 4367 4346 4350 
4365 4361 4348 4352 4674 4678 4676 4680 4162 
4166 4164 4168 4010 4012 4675 4679 4677 4673 
4347 4351 4314 4318 4163 4167 4349 4345 4316 
4320 4165 4161 4635 4634 4638 4639 4636 4637 
4633 4640 4354 4268 4356 4011 4013 4730 4734 
4736 4732 4498 4315 4319 4355 4266 4270 4146 
4150 4034 4317 4313 4038 4357 4272 4148 4152 
4036 4040 4002 4006 4004 4008 4735 4731 4729 
4733 4499 4267 4271 4500 4115 4119 4035 4269 
4039 4265 4117 4121 4068 4072 4154 4158 4210 
4214 4147 4151 4066 4070 4501 4212 4216 4156 
4160 4149 4145 4037 4033 4005 4001 4530 4534 
4234 4238 4155 4159 4116 4120 4123 4127 4067 
4532 4536 4071 4236 4240 4157 4153 4118 4122 
4125 4114 4069 4065 4003 4007 4387 4391 4235 
4239 4211 4215 4389 4128 4393 4237 4233 4213 
4209 4586 4590 4450 4454 4388 4392 4531 4535 
4418 4422 4588 4592 4178 4182 4452 4456 4124 
4390 4533 4529 4394 4420 4424 4180 4184 4126 
4113 4587 4591 4451 4455 4419 4423 4290 4294 
4589 4585 4453 4449 4421 4417 4292 4296 4555 
4559 4395 4399 4338 4342 4291 4295 4557 4561 
4179 4183 4397 4386 4340 4344 4293 4289 4181 
4177 4556 4560 4611 4615 4506 4510 4613 4396 
4339 4343 4558 4562 4508 4512 4341 4337 4738 
4742 4740 4744 4612 4616 4507 4511 4617 4400 
4614 4618 4509 4505 4398 4385 4619 4623 4726 
4727 4722 4723 4739 4743 4721 4728 4724 4725 
4741 4737 4610 4565 4050 4052 4620 4624 4622 
4621 4563 4567 4609 4554 4564 4568 4566 4553 
4051 4053 4769 4776 4772 4773 3899 3849 3161 
3811 3905 3818 3440 3876 3972 3838 3934 3762 
3860 3784 3900 3957 3405 3964 3755 3945 3985 
3025 3741 3717 3978 3858 2927 2591 2989 3922 
3856 2481 3778 3796 3666 3867 3711 2867 3888 
3441 3737 3869 3819 3806 3805 3712 3742 3915 
3999 3263 3665 3723 2483 3766 3162 3812 3208 
3850 3881 3797 3691 2748 3770 3840 3891 3324 
3851 3889 3614 2751 3262 3763 3732 3385 3764 
3777 3890 3771 2750 3793 3914 3946 3991 3791 
3774 2690 3442 3870 3779 3820 2484 3668 3913 
3901 3718 3923 2790 3828 3613 3799 2963 3692 
3993 3084 3916 3979 3974 3998 3667 3924 3810 
2928 3790 3947 3750 4783 4782 3739 3835 3719 
4779 4778 3715 3892 3772 3751 3846 3857 3298 
3861 3443 3833 3958 3926 3935 3733 3983 3798 
3800 3843 3326 3872 3992 3743 3936 2868 2753 
3725 3967 3792 3980 3930 3444 3693 3902 3883 
3848 3969 4714 4718 4716 4720 4715 4719 4717 
4713 4626 4630 4515 4519 4628 4632 4627 4631 
4629 4625 4517 4521 4516 4520 4402 4406 4518 
4522 4404 4408 4403 4407 4523 4527 4525 4514 
4405 4401 4702 4698 4700 4704 4699 4703 4701 
4697 4524 4528 4526 4513 4426 4430 4428 4432 
4753 4760 4756 4757 4427 4431 4429 4425 4490 
4494 4370 4374 4492 4496 4372 4376 4298 4302 
4300 4304 4764 4768 4491 4458 4495 4462 4371 
4375 4202 4206 4299 4303 4493 4460 4489 4464 
4373 4369 4301 4297 4204 4208 4765 4761 4683 
4682 4687 4686 4685 4684 4688 4681 4546 4550 
4548 4552 4666 4670 4672 4668 4547 4551 4459 
4463 4203 4207 4549 4545 4461 4457 4205 4201 
4662 4671 4667 4664 4665 4669 4663 4657 4642 
4643 4647 4646 4644 4645 4641 4648 4759 4754 
4755 4758 4762 4766 4763 4767 4650 4654 4652 
4656 4651 4655 4653 4649 4306 4310 4308 4312 
4014 4016 4752 4748 4745 4749 4542 4358 4540 
4544 4307 4311 4360 4309 4305 4015 4009 4538 
4706 4707 4711 4710 4378 4382 4502 4708 4709 
4705 4712 4359 4322 4326 4380 4384 4353 4328 
4324 4192 4539 4543 4379 4383 4503 4541 4537 
4504 4186 4190 4243 4247 4381 4377 4103 4325 
4321 4185 4188 4245 4249 4101 4105 4323 4327 
4187 4191 4497 4099 4189 4244 4248 4100 4104 
4246 4250 4102 4106 4410 4414 4412 4416 4411 
4415 4413 4409 4434 4438 4436 4440 4435 4439 
4255 4130 4134 4437 4433 4253 4242 4132 4136 
4218 4222 4251 4220 4224 4252 4256 4170 4174 
4131 4135 4254 4241 4172 4176 4133 4129 4466 
4470 4219 4223 4171 4175 4468 4472 4054 4221 
4217 4173 4169 4056 4570 4574 4467 4471 4274 
4278 4572 4576 4469 4465 4107 4111 4276 4280 
4109 4098 4571 4575 4275 4279 4573 4569 4108 
4112 4277 4055 4273 4110 4097 4049 4746 4784 
4750 4751 4781 4780 4747 4777 
type 1 1086 int
2 2 2 2 2 2 2 2 2 
2 2 2 2 2 2 2 2 2 
2 2 2 2 2 2 2 2 2 
2 2 2 2 2 2 2 2 2 
2 2 2 2 2 2 2 2 2 
2 2 2 2 2 2 2 2 2 
2 2 2 2 2 2 2 2 2 
2 2 2 2 2 2 2 2 2 
2 2 2 2 2 2 2 2 2 
2 2 2 2 2 2 2 2 2 
2 2 2 2 2 2 2 2 2 
2 2 2 2 2 2 2 2 2 
2 2 2 2 2 2 2 2 2 
2 2 2 2 2 2 2 2 2 
2 2 2 2 2 2 2 2 2 
2 2 2 2 2 2 2 2 2 
2 2 2 2 2 2 2 2 2 
2 2 2 2 2 2 2 2 2 
2 2 2 2 2 2 2 2 2 
2 2 2 2 2 2 2 2 2 
2 2 2 2 2 2 2 2 2 
2 2 2 2 2 2 2 2 2 
2 2 2 2 2 2 2 2 2 
2 2 2 2 2 2 2 2 2 
2 2 2 2 2 2 2 2 2 
2 2 2 2 2 2 2 2 2 
2 2 2 2 2 2 2 2 2 
2 2 2 2 2 2 2 2 2 
2 2 2 2 2 2 2 2 2 
2 2 2 2 2 2 2 2 2 
2 2 2 2 2 2 2 2 2 
2 2 2 2 2 2 2 2 2 
2 2 2 2 2 2 2 2 2 
2 2 2 2 2 2 2 2 2 
2 2 2 2 2 2 2 2 2 
2 2 2 2 2 2 2 2 2 
2 2 2 2 2 2 2 2 2 
2 2 2 2 2 2 2 2 2 
2 2 2 2 2 2 2 2 2 
2 2 2 2 2 2 2 2 2 
2 2 2 2 2 2 2 2 2 
2 2 2 2 2 2 2 2 2 
2 2 2 2 2 2 2 2 2 
2 2 2 2 2 2 2 2 2 
2 2 2 2 2 2 2 2 2 
2 2 2 2 2 2 2 2 2 
2 2 2 2 2 2 2 2 2 
2 2 2 2 2 2 2 2 2 
2 2 2 2 2 2 2 2 2 
2 2 2 2 2 2 2 2 2 
2 2 2 2 2 2 2 2 2 
2 2 2 2 2 2 2 2 2 
2 2 2 2 2 2 2 2 2 
2 2 2 2 2 2 2 2 2 
2 2 2 2 2 2 2 2 2 
2 2 2 2 2 2 2 2 2 
2 2 2 2 2 2 2 2 2 
2 2 2 2 2 2 2 2 2 
2 2 2 2 2 2 2 2 2 
2 2 2 2 2 2 2 2 2 
2 2 2 2 2 2 2 2 2 
2 2 2 2 2 2 2 2 2 
2 2 2 2 2 2 2 2 2 
2 2 2 2 2 2 2 2 2 
2 2 2 2 2 2 2 2 2 
2 2 2 2 2 2 2 2 2 
2 2 2 2 2 2 2 2 2 
2 2 2 2 2 2 2 2 2 
2 2 2 2 2 2 2 2 2 
2 2 2 2 2 2 2 2 2 
2 2 2 2 2 2 2 2 2 
2 2 2 2 2 2 2 2 2 
2 2 2 2 2 2 2 2 2 
2 2 2 2 2 2 2 2 2 
2 2 2 2 2 2 2 2 2 
2 2 2 2 2 2 2 2 2 
2 2 2 2 2 2 2 2 2 
2 2 2 2 2 2 2 2 2 
2 2 2 2 2 2 2 2 2 
2 2 2 2 2 2 2 2 2 
2 2 2 2 2 2 2 2 2 
2 2 2 2 2 2 2 2 2 
2 2 2 2 2 2 2 2 2 
2 2 2 2 2 2 2 2 2 
2 2 2 2 2 2 2 2 2 
2 2 2 2 2 2 2 2 2 
2 2 2 2 2 2 2 2 2 
2 2 2 2 2 2 2 2 2 
2 2 2 2 2 2 2 2 2 
2 2 2 2 2 2 2 2 2 
2 2 2 2 2 2 2 2 2 
2 2 2 2 2 2 2 2 2 
2 2 2 2 2 2 2 2 2 
2 2 2 2 2 2 2 2 2 
2 2 2 2 2 2 2 2 2 
2 2 2 2 2 2 2 2 2 
2 2 2 2 2 2 2 2 2 
2 2 2 2 2 2 2 2 2 
2 2 2 2 2 2 2 2 2 
2 2 2 2 2 2 2 2 2 
2 2 2 2 2 2 2 2 2 
2 2 2 2 2 2 2 2 2 
2 2 2 2 2 2 2 2 2 
2 2 2 2 2 2 2 2 2 
2 2 2 2 2 2 2 2 2 
2 2 2 2 2 2 2 2 2 
2 2 2 2 2 2 2 2 2 
2 2 2 2 2 2 2 2 2 
2 2 2 2 2 2 2 2 2 
2 2 2 2 2 2 2 2 2 
2 2 2 2 2 2 2 2 2 
2 2 2 2 2 2 2 2 2 
2 2 2 2 2 2 2 2 2 
2 2 2 2 2 2 2 2 2 
2 2 2 2 2 2 2 2 2 
2 2 2 2 2 2 2 2 2 
2 2 2 2 2 2 2 2 2 
2 2 2 2 2 2 2 2 2 
2 2 2 2 2 2 2 2 2 
2 2 2 2 2 2 2 2 2 
2 2 2 2 2 2 
i 3 1086 int
0 0 0 0 0 0 0 0 0 
0 0 0 0 0 0 0 0 0 
0 0 0 0 0 0 0 0 0 
0 0 0 0 0 0 0 0 0 
0 0 0 0 0 0 0 0 0 
0 0 0 0 0 0 0 0 0 
0 0 0 0 0 0 0 0 0 
0 0 0 0 0 0 0 0 0 
0 0 0 0 0 0 0 0 0 
0 0 0 0 0 0 0 0 0 
0 0 0 0 0 0 0 0 0 
0 0 0 0 0 0 0 0 0 
0 0 0 0 0 0 0 0 0 
0 0 0 0 0 0 0 0 0 
0 0 0 0 0 0 0 0 0 
0 0 0 0 0 0 0 0 0 
0 0 0 0 0 0 0 0 0 
0 0 0 0 0 0 0 0 0 
0 0 0 0 0 0 0 0 0 
0 0 0 0 0 0 0 0 0 
0 0 0 0 0 0 0 0 0 
0 0 0 0 0 0 0 0 0 
0 0 0 0 0 0 0 0 0 
0 0 0 0 0 0 0 0 0 
0 0 0 0 0 0 0 0 0 
0 0 0 0 0 0 0 0 0 
0 0 0 0 0 0 0 0 0 
0 0 0 0 0 0 0 0 0 
0 0 0 0 0 0 0 0 0 
0 0 0 0 0 0 0 0 0 
0 0 0 0 0 0 0 0 0 
0 0 0 0 0 0 0 0 0 
0 0 0 0 0 0 0 0 0 
0 0 0 0 0 0 0 0 0 
0 0 0 0 0 0 0 0 0 
0 0 0 0 0 0 0 0 0 
0 0 0 0 0 0 0 0 0 
0 0 0 0 0 0 0 0 0 
0 0 0 0 0 0 0 0 0 
0 0 0 0 0 0 0 0 0 
0 0 0 0 0 0 0 0 0 
0 0 0 0 0 0 0 0 0 
0 0 0 0 0 0 0 0 0 
0 0 0 0 0 0 0 0 0 
0 0 0 0 0 0 0 0 0 
0 0 0 0 0 0 0 0 0 
0 0 0 0 0 0 0 0 0 
0 0 0 0 0 0 0 0 0 
0 0 0 0 0 0 0 0 0 
0 0 0 0 0 0 0 0 0 
0 0 0 0 0 0 0 0 0 
0 0 0 0 0 0 0 0 0 
0 0 0 0 0 0 0 0 0 
0 0 0 0 0 0 0 0 0 
0 0 0 0 0 0 0 0 0 
0 0 0 0 0 0 0 0 0 
0 0 0 0 0 0 0 0 0 
0 0 0 0 0 0 0 0 0 
0 0 0 0 0 0 0 0 0 
0 0 0 0 0 0 0 0 0 
0 0 0 0 0 0 0 0 0 
0 0 0 0 0 0 0 0 0 
0 0 0 0 0 0 0 0 0 
0 0 0 0 0 0 0 0 0 
0 0 0 0 0 0 0 0 0 
0 0 0 0 0 0 0 0 0 
0 0 0 0 0 0 0 0 0 
0 0 0 0 0 0 0 0 0 
0 0 0 0 0 0 0 0 0 
0 0 0 0 0 0 0 0 0 
0 0 0 0 0 0 0 0 0 
0 0 0 0 0 0 0 0 0 
0 0 0 0 0 0 0 0 0 
0 0 0 0 0 0 0 0 0 
0 0 0 0 0 0 0 0 0 
0 0 0 0 0 0 0 0 0 
0 0 0 0 0 0 0 0 0 
0 0 0 0 0 0 0 0 0 
0 0 0 0 0 0 0 0 0 
0 0 0 0 0 0 0 0 0 
0 0 0 0 0 0 0 0 0 
0 0 0 0 0 0 0 0 0 
0 0 0 0 0 0 0 0 0 
0 0 0 0 0 0 0 0 0 
0 0 0 0 0 0 0 0 0 
0 0 0 0 0 0 0 0 0 
0 0 0 0 0 0 0 0 0 
0 0 0 0 0 0 0 0 0 
0 0 0 0 0 0 0 0 0 
0 0 0 0 0 0 0 0 0 
0 0 0 0 0 0 0 0 0 
0 0 0 0 0 0 0 0 0 
0 0 0 0 0 0 0 0 0 
0 0 0 0 0 0 0 0 0 
0 0 0 0 0 0 0 0 0 
0 0 0 0 0 0 0 0 0 
0 0 0 0 0 0 0 0 0 
0 0 0 0 0 0 0 0 0 
0 0 0 0 0 0 0 0 0 
0 0 0 0 0 0 0 0 0 
0 0 0 0 0 0 0 0 0 
0 0 0 0 0 0 0 0 0 
0 0 0 0 0 0 0 0 0 
0 0 0 0 0 0 0 0 0 
0 0 0 0 0 0 0 0 0 
0 0 0 0 0 0 0 0 0 
0 0 0 0 0 0 0 0 0 
0 0 0 0 0 0 0 0 0 
0 0 0 0 0 0 0 0 0 
0 0 0 0 0 0 0 0 0 
0 0 0 0 0 0 0 0 0 
0 0 0 0 0 0 0 0 0 
0 0 0 0 0 0 0 0 0 
0 0 0 0 0 0 0 0 0 
0 0 0 0 0 0 0 0 0 
0 0 0 0 0 0 0 0 0 
0 0 0 0 0 0 0 0 0 
0 0 0 0 0 0 0 0 0 
0 0 0 0 0 0 0 0 0 
0 0 0 0 0 0 0 0 0 
0 0 0 0 0 0 0 0 0 
0 0 0 0 0 0 0 0 0 
0 0 0 0 0 0 0 0 0 
0 0 0 0 0 0 0 0 0 
0 0 0 0 0 0 0 0 0 
0 0 0 0 0 0 0 0 0 
0 0 0 0 0 0 0 0 0 
0 0 0 0 0 0 0 0 0 
0 0 0 0 0 0 0 0 0 
0 0 0 0 0 0 0 0 0 
0 0 0 0 0 0 0 0 0 
0 0 0 0 0 0 0 0 0 
0 0 0 0 0 0 0 0 0 
0 0 0 0 0 0 0 0 0 
0 0 0 0 0 0 0 0 0 
0 0 0 0 0 0 0 0 0 
0 0 0 0 0 0 0 0 0 
0 0 0 0 0 0 0 0 0 
0 0 0 0 0 0 0 0 0 
0 0 0 0 0 0 0 0 0 
0 0 0 0 0 0 0 0 0 
0 0 0 0 0 0 0 0 0 
0 0 0 0 0 0 0 0 0 
0 0 0 0 0 0 0 0 0 
0 0 0 0 0 0 0 0 0 
0 0 0 0 0 0 0 0 0 
0 0 0 0 0 0 0 0 0 
0 0 0 0 0 0 0 0 0 
0 0 0 0 0 0 0 0 0 
0 0 0 0 0 0 0 0 0 
0 0 0 0 0 0 0 0 0 
0 0 0 0 0 0 0 0 0 
0 0 0 0 0 0 0 0 0 
0 0 0 0 0 0 0 0 0 
0 0 0 0 0 0 0 0 0 
0 0 0 0 0 0 0 0 0 
0 0 0 0 0 0 0 0 0 
0 0 0 0 0 0 0 0 0 
0 0 0 0 0 0 0 0 0 
0 0 0 0 0 0 0 0 0 
0 0 0 0 0 0 0 0 0 
0 0 0 0 0 0 0 0 0 
0 0 0 0 0 0 0 0 0 
0 0 0 0 0 0 0 0 0 
0 0 0 0 0 0 0 0 0 
0 0 0 0 0 0 0 0 0 
0 0 0 0 0 0 0 0 0 
0 0 0 0 0 0 0 0 0 
0 0 0 0 0 0 0 0 0 
0 0 0 0 0 0 0 0 0 
0 0 0 0 0 0 0 0 0 
0 0 0 0 0 0 0 0 0 
0 0 0 0 0 0 0 0 0 
0 0 0 0 0 0 0 0 0 
0 0 0 0 0 0 0 0 0 
0 0 0 0 0 0 0 0 0 
0 0 0 0 0 0 0 0 0 
0 0 0 0 0 0 0 0 0 
0 0 0 0 0 0 0 0 0 
0 0 0 0 0 0 0 0 0 
0 0 0 0 0 0 0 0 0 
0 0 0 0 0 0 0 0 0 
0 0 0 0 0 0 0 0 0 
0 0 0 0 0 0 0 0 0 
0 0 0 0 0 0 0 0 0 
0 0 0 0 0 0 0 0 0 
0 0 0 0 0 0 0 0 0 
0 0 0 0 0 0 0 0 0 
0 0 0 0 0 0 0 0 0 
0 0 0 0 0 0 0 0 0 
0 0 0 0 0 0 0 0 0 
0 0 0 0 0 0 0 0 0 
0 0 0 0 0 0 0 0 0 
0 0 0 0 0 0 0 0 0 
0 0 0 0 0 0 0 0 0 
0 0 0 0 0 0 0 0 0 
0 0 0 0 0 0 0 0 0 
0 0 0 0 0 0 0 0 0 
0 0 0 0 0 0 0 0 0 
0 0 0 0 0 0 0 0 0 
0 0 0 0 0 0 0 0 0 
0 0 0 0 0 0 0 0 0 
0 0 0 0 0 0 0 0 0 
0 0 0 0 0 0 0 0 0 
0 0 0 0 0 0 0 0 0 
0 0 0 0 0 0 0 0 0 
0 0 0 0 0 0 0 0 0 
0 0 0 0 0 0 0 0 0 
0 0 0 0 0 0 0 0 0 
0 0 0 0 0 0 0 0 0 
0 0 0 0 0 0 0 0 0 
0 0 0 0 0 0 0 0 0 
0 0 0 0 0 0 0 0 0 
0 0 0 0 0 0 0 0 0 
0 0 0 0 0 0 0 0 0 
0 0 0 0 0 0 0 0 0 
0 0 0 0 0 0 0 0 0 
0 0 0 0 0 0 0 0 0 
0 0 0 0 0 0 0 0 0 
0 0 0 0 0 0 0 0 0 
0 0 0 0 0 0 0 0 0 
0 0 0 0 0 0 0 0 0 
0 0 0 0 0 0 0 0 0 
0 0 0 0 0 0 0 0 0 
0 0 0 0 0 0 0 0 0 
0 0 0 0 0 0 0 0 0 
0 0 0 0 0 0 0 0 0 
0 0 0 0 0 0 0 0 0 
0 0 0 0 0 0 0 0 0 
0 0 0 0 0 0 0 0 0 
0 0 0 0 0 0 0 0 0 
0 0 0 0 0 0 0 0 0 
0 0 0 0 0 0 0 0 0 
0 0 0 0 0 0 0 0 0 
0 0 0 0 0 0 0 0 0 
0 0 0 0 0 0 0 0 0 
0 0 0 0 0 0 0 0 0 
0 0 0 0 0 0 0 0 0 
0 0 0 0 0 0 0 0 0 
0 0 0 0 0 0 0 0 0 
0 0 0 0 0 0 0 0 0 
0 0 0 0 0 0 0 0 0 
0 0 0 0 0 0 0 0 0 
0 0 0 0 0 0 0 0 0 
0 0 0 0 0 0 0 0 0 
0 0 0 0 0 0 0 0 0 
0 0 0 0 0 0 0 0 0 
0 0 0 0 0 0 0 0 0 
0 0 0 0 0 0 0 0 0 
0 0 0 0 0 0 0 0 0 
0 0 0 0 0 0 0 0 0 
0 0 0 0 0 0 0 0 0 
0 0 0 0 0 0 0 0 0 
0 0 0 0 0 0 0 0 0 
0 0 0 0 0 0 0 0 0 
0 0 0 0 0 0 0 0 0 
0 0 0 0 0 0 0 0 0 
0 0 0 0 0 0 0 0 0 
0 0 0 0 0 0 0 0 0 
0 0 0 0 0 0 0 0 0 
0 0 0 0 0 0 0 0 0 
0 0 0 0 0 0 0 0 0 
0 0 0 0 0 0 0 0 0 
0 0 0 0 0 0 0 0 0 
0 0 0 0 0 0 0 0 0 
0 0 0 0 0 0 0 0 0 
0 0 0 0 0 0 0 0 0 
0 0 0 0 0 0 0 0 0 
0 0 0 0 0 0 0 0 0 
0 0 0 0 0 0 0 0 0 
0 0 0 0 0 0 0 0 0 
0 0 0 0 0 0 0 0 0 
0 0 0 0 0 0 0 0 0 
0 0 0 0 0 0 0 0 0 
0 0 0 0 0 0 0 0 0 
0 0 0 0 0 0 0 0 0 
0 0 0 0 0 0 0 0 0 
0 0 0 0 0 0 0 0 0 
0 0 0 0 0 0 0 0 0 
0 0 0 0 0 0 0 0 0 
0 0 0 0 0 0 0 0 0 
0 0 0 0 0 0 0 0 0 
0 0 0 0 0 0 0 0 0 
0 0 0 0 0 0 0 0 0 
0 0 0 0 0 0 0 0 0 
0 0 0 0 0 0 0 0 0 
0 0 0 0 0 0 0 0 0 
0 0 0 0 0 0 0 0 0 
0 0 0 0 0 0 0 0 0 
0 0 0 0 0 0 0 0 0 
0 0 0 0 0 0 0 0 0 
0 0 0 0 0 0 0 0 0 
0 0 0 0 0 0 0 0 0 
0 0 0 0 0 0 0 0 0 
0 0 0 0 0 0 0 0 0 
0 0 0 0 0 0 0 0 0 
0 0 0 0 0 0 0 0 0 
0 0 0 0 0 0 0 0 0 
0 0 0 0 0 0 0 0 0 
0 0 0 0 0 0 0 0 0 
0 0 0 0 0 0 0 0 0 
0 0 0 0 0 0 0 0 0 
0 0 0 0 0 0 0 0 0 
0 0 0 0 0 0 0 0 0 
0 0 0 0 0 0 0 0 0 
0 0 0 0 0 0 0 0 0 
0 0 0 0 0 0 0 0 0 
0 0 0 0 0 0 0 0 0 
0 0 0 0 0 0 0 0 0 
0 0 0 0 0 0 0 0 0 
0 0 0 0 0 0 0 0 0 
0 0 0 0 0 0 0 0 0 
0 0 0 0 0 0 0 0 0 
0 0 0 0 0 0 0 0 0 
0 0 0 0 0 0 0 0 0 
0 0 0 0 0 0 0 0 0 
0 0 0 0 0 0 0 0 0 
0 0 0 0 0 0 0 0 0 
0 0 0 0 0 0 0 0 0 
0 0 0 0 0 0 0 0 0 
0 0 0 0 0 0 0 0 0 
0 0 0 0 0 0 0 0 0 
0 0 0 0 0 0 0 0 0 
0 0 0 0 0 0 0 0 0 
0 0 0 0 0 0 0 0 0 
0 0 0 0 0 0 0 0 0 
0 0 0 0 0 0 0 0 0 
0 0 0 0 0 0 0 0 0 
0 0 0 0 0 0 0 0 0 
0 0 0 0 0 0 0 0 0 
0 0 0 0 0 0 0 0 0 
0 0 0 0 0 0 0 0 0 
0 0 0 0 0 0 0 0 0 
0 0 0 0 0 0 0 0 0 
0 0 0 0 0 0 0 0 0 
0 0 0 0 0 0 0 0 0 
0 0 0 0 0 0 0 0 0 
0 0 0 0 0 0 0 0 0 
0 0 0 0 0 0 0 0 0 
0 0 0 0 0 0 0 0 0 
0 0 0 0 0 0 0 0 0 
0 0 0 0 0 0 0 0 0 
0 0 0 0 0 0 0 0 0 
0 0 0 0 0 0 0 0 0 
0 0 0 0 0 0 0 0 0 
0 0 0 0 0 0 0 0 0 
0 0 0 0 0 0 0 0 0 
0 0 0 0 0 0 0 0 0 
0 0 0 0 0 0 0 0 0 
0 0 0 0 0 0 0 0 0 
0 0 0 0 0 0 0 0 0 
0 0 0 0 0 0 0 0 0 
0 0 0 0 0 0 0 0 0 
0 0 0 0 0 0 0 0 0 
0 0 0 0 0 0 0 0 0 
0 0 0 0 0 0 0 0 0 
0 0 0 0 0 0 0 0 0 
0 0 0 0 0 0 0 0 0 
0 0 0 0 0 0 0 0 0 
0 0 0 0 0 0 0 0 0 
0 0 0 0 0 0 0 0 0 
0 0 0 0 0 0 0 0 0 

v 3 1086 double
0.0080156891962 -0.0015029605931 0.004447886628 0.010048934566 -0.00070430313784 0.0034683114765 -0.029080006669 0.04353332093 0.035337047209 
-0.13317801248 0.16221021249 0.0070055395523 0.0046274359853 0.008066801115 -0.0032981339191 -0.0056303209371 0.0085283445581 0.016039859049 
-0.027173646627 0.011902077028 0.021408443641 -0.01040054753 0.0058004044742 0.04555054737 -0.19048707261 0.037453699347 -0.044591951551 
-0.084222972431 0.081829535961 -0.0015657430505 -0.015970077835 0.15166809512 0.0078683031147 0.0084999301845 0.1323890659 0.0081926522313 
0.0041098429884 0.30328549985 0.0085481915591 0.0086390268809 0.038845535794 -0.0015567670795 0.019798951085 0.040401127349 0.0076420378047 
-0.078830096885 0.05744859893 0.00019912973901 -0.073359751146 0.048740936439 0.033533506534 0.00042695319134 0.13846042764 0.029105660503 
0.088754276994 0.22662720955 0.01755179333 -0.040956546694 0.26237529859 -0.077021290032 -0.13444462905 -0.096310921272 -0.048121224652 
-0.097613623005 0.14261836488 -0.069878233524 0.012445841211 0.010247161759 0.022377678425 -0.015825932323 -0.0093599622889 0.054880867859 
-0.055110835015 0.016838623604 0.044337729087 -0.021953360345 0.025884201396 0.04599242959 -0.073813710025 0.08258838943 0.042032440437 
0.012718550083 0.067616469755 0.01425317236 0.096087284017 0.12261288527 -0.004294039915 -0.024108631974 0.052866387327 -0.0092589620461 
-0.067244853967 0.04522047833 -0.011281584556 -0.046543241901 0.073906791384 0.057776194531 -0.005644904192 0.11634111591 0.004857108426 
-0.023837693753 0.013424326694 0.030482934101 -0.052806535397 0.024323413529 0.073682984456 -0.29508440245 -0.071096543414 -0.22995170811 
0.017418324533 0.057616216922 -0.030352324845 -0.031250205073 0.21919385107 0.082559184695 -0.00066328633309 0.27334262606 0.093316999735 
-0.013011560337 0.21057775716 -0.067361238852 0.049970442685 -0.065324642116 0.045880628903 -0.1632132347 0.016458060305 -0.098071338305 
0.010421709988 0.032597662155 0.089304931032 -0.0032792434209 0.15987574977 -0.11366743156 0.035121297983 0.12847363527 0.096812815135 
-0.02568388976 0.17898130461 0.043235618101 -0.084078667498 0.04976864582 -0.029746205785 -0.1093329276 0.013073293453 -0.054392005946 
0.084560273476 0.0049494460269 0.023097140815 8.7304082862e-05 0.05658216547 0.0490846904 -0.10514529648 0.01736526256 0.032910920883 
0.17906924697 0.04465336239 0.12954131523 0.011388376557 0.041364487349 -0.11565082641 0.0073616794846 0.22860097262 0.0056379145434 
-0.081077584478 0.27179021998 -0.19453844851 0.095677381331 0.0044200649861 -0.086041273012 -0.023683525094 0.038479039595 0.077669425022 
0.042602169189 0.089323789222 -0.065956124659 0.015727314557 0.021455075493 -0.0024677751594 -0.0039167831326 0.051254836739 -0.001557137884 
0.088817694295 0.1124998154 -0.053149249242 -0.041178332009 0.14957725344 0.14796284926 -0.011140416409 0.097767829241 -0.12921837017 
0.086954209449 0.2526704874 -0.16366621469 0.12805066387 0.097112908791 0.070525714734 0.21273066105 0.083784470045 0.0040210919325 
-0.016476201133 0.099454444818 -0.084306564822 0.021048419661 0.14836727693 0.023197587498 0.13721431181 0.10181133851 -0.021435361436 
0.032153006952 0.017443458787 0.013840565836 -0.12138748745 0.023556564993 -0.062933400745 0.11675560386 0.0055103898253 0.016518092401 
0.028538407798 0.025056636625 -0.064268107381 0.031590655792 0.043572963739 -0.02529784089 0.066069911894 0.030486271706 0.011613924384 
0.0720265258 0.092481050782 0.10567728676 -0.033229108723 0.13146619811 -0.072439225811 -0.15104217532 0.21350433729 -0.08847513098 
-0.025594285419 -0.014935601697 -0.022341376857 -0.056134412897 -0.038602294024 -3.5635321372e-05 0.13889610943 -0.022972110717 0.059703086428 
0.0027558020571 0.066480200587 0.020948937278 0.068650783752 0.018026213225 0.060475464125 0.0094198569489 0.15103026516 -0.022541178981 
-0.0027343479842 0.020591615742 0.016982238916 -0.02456028625 0.011359228832 -0.0113720337 0.027032685635 0.021794619309 -0.024559164227 
-0.075355759169 0.021676425543 0.0073510566327 0.014928890544 0.04441030584 -0.041816267398 -0.019593090008 0.057115403233 0.099738465183 
-0.047772226234 0.0132061549 0.03151757883 0.080529813377 0.0057628936695 0.0071294393731 -0.010215913331 0.035447076697 0.029717211007 
-0.082935369571 0.12454513688 0.22031739751 0.048239276178 0.099225294711 0.24497616456 -0.029110559063 0.018207847277 -0.076876075613 
-0.0096628145522 0.033629140474 0.017212347142 0.0050733256563 0.016862138436 0.042681092749 0.049403257311 0.043097090476 -0.013412633032 
-0.0019492195281 0.06894765178 0.027024499287 0.058714015235 0.0017270508604 -0.0052240249124 -0.0039913111495 0.045910097796 0.029473773607 
0.017297158063 0.051523199259 0.034196204277 -0.19451755495 0.039668183639 -0.064885900376 -0.0061600299512 0.11429591419 0.13432692073 
-0.029513261594 0.16173266479 0.02841832475 0.058087612515 0.020893658911 0.057573748421 0.043123495637 0.038606691854 0.058239888712 
-0.021958819501 0.054191597684 0.048298013441 -0.093883439559 0.14252171153 0.082969879669 0.045861773211 0.010416166083 0.066043061475 