# vtk DataFile Version 5.1
Generated by LIGGGHTS
ASCII
DATASET POLYDATA
POINTS 1387 float
-0.134158 0.0553399 -0.143298 -0.137041 0.0694208 -0.142553 -0.140481 0.15176 -0.143221 
-0.00350994 0.175723 -0.14458 -0.143601 0.0612048 -0.14243 -0.0310941 0.0842246 -0.135766 
-0.132367 0.0982717 -0.14125 -0.0291581 0.127298 -0.138347 -0.106935 0.161865 -0.139669 
-0.0698209 0.16277 -0.139369 -0.129483 0.0553231 -0.128389 -0.120523 0.0608809 -0.132844 
-0.0857188 0.063405 -0.129444 -0.130155 0.0826228 -0.133725 -0.0157052 0.0865753 -0.133256 
-0.109117 0.106618 -0.132248 -0.144225 0.176943 -0.13472 -0.121717 0.0589012 -0.121998 
-0.00379507 0.0656353 -0.124381 -0.0357785 0.0856988 -0.126048 -0.0322901 0.110888 -0.122371 
-0.0229921 0.161508 -0.122083 -0.129365 0.0658468 -0.120054 -0.0887005 0.0722555 -0.117596 
-0.132668 0.0813959 -0.118272 -0.144025 0.0927723 -0.112524 -0.0425932 0.0928169 -0.11377 
-0.0482069 0.142764 -0.119509 -0.0892308 0.161686 -0.116629 -0.0705366 0.155549 -0.117447 
-0.0609705 0.184584 -0.116238 -0.143724 0.0605767 -0.108474 -0.0548258 0.0958911 -0.111971 
-0.132328 0.106919 -0.111565 -0.0338599 0.105301 -0.110601 -0.106694 0.0651115 -0.10112 
-0.0319523 0.0642954 -0.0930171 -0.136123 0.0740234 -0.0930573 -0.028665 0.156223 -0.0915146 
-0.141556 0.0645846 -0.0850886 -0.0632223 0.0915003 -0.0855874 -0.100746 0.102423 -0.0869536 
-0.0340311 0.122319 -0.0880317 -0.0178712 0.0613454 -0.0800467 -0.0351091 0.0623968 -0.0750497 
-0.105014 0.0711412 -0.0767234 -0.126466 0.132033 -0.0767585 -0.0764567 0.193702 -0.0757456 
-0.0991596 0.137077 -0.0704046 -0.085039 0.0662339 -0.0605247 -0.0023713 0.0864651 -0.0538933 
-0.0426402 0.112316 -0.0576963 -0.0312256 0.156604 -0.0541522 -0.129511 0.11536 -0.0492325 
-0.0676228 0.0637592 -0.0398661 -0.0414218 0.0732101 -0.044974 -0.0327264 0.158018 -0.0436638 
-0.0435689 0.171797 -0.0401259 -0.126016 0.0828472 -0.0302449 -0.0107682 0.084578 -0.0351788 
-0.0571975 0.0873093 -0.0258147 -0.139974 0.0555048 -0.0162696 -0.128447 0.0586857 -0.0162697 
-0.0998669 0.0635005 -0.0194198 -0.00222359 0.0918507 -0.0183651 -0.0125272 0.110929 -0.0193266 
-0.130556 0.178846 -0.021587 -0.0333589 0.0685906 -0.0140829 -0.103765 0.0907902 -0.0148714 
-0.0929216 0.0634215 -0.00692332 -0.138631 0.0694098 -0.00584786 -0.0165905 0.081666 -0.00019988 
-0.131318 0.0924056 -0.00481037 -0.0441774 0.111439 -0.00305209 -0.0605041 0.176182 -0.00131096 
-0.0170055 0.0566839 0.00761889 -0.141614 0.0659102 0.00757673 -0.0307998 0.0754693 0.00634431 
-0.136252 0.0927788 0.00399773 -0.0333676 0.0561209 0.00920768 -0.012026 0.073879 0.0100004 
-0.00564462 0.0887606 0.0120907 -0.0658895 0.118855 0.0137368 -0.144016 0.0762959 0.0200321 
-0.116613 0.0710431 0.0199009 -0.124006 0.0821765 0.0193998 -0.108825 0.0567668 0.0280983 
-0.131674 0.0711241 0.0297348 -0.131552 0.103359 0.0276352 -0.0143247 0.103382 0.0282219 
-0.121096 0.0921285 0.0376208 -0.103041 0.100421 0.0339557 -0.107724 0.183909 0.0325231 
-0.0461716 0.0818987 0.0512385 -0.0127265 0.0836264 0.0501587 -0.143197 0.0851767 0.0453197 
-0.0959164 0.0959223 0.0523384 -0.0122187 0.144228 0.0514436 -0.0596098 0.0562479 0.0572436 
-0.0775562 0.0795659 0.0543614 -0.00503401 0.0885844 0.054376 -0.117823 0.121814 0.0554157 
-0.138164 0.16214 0.0536581 -0.0249114 0.0626984 0.0654407 -0.00423953 0.0889475 0.0676069 
-0.0646021 0.197741 0.0605134 -0.138393 0.154301 0.0697094 -0.0748074 0.153308 0.0732916 
-0.145009 0.0603488 0.0796899 -0.124068 0.0812081 0.0795758 -0.103317 0.161682 0.0799843 
-0.0965421 0.0968979 0.0825862 -0.0217263 0.0681381 0.0903129 -0.0266022 0.136624 0.0959992 
-0.101415 0.161533 0.0946714 -0.0795467 0.0599402 0.101236 -0.105519 0.0706791 0.105075 
-0.0497753 0.0733763 0.101457 -0.140368 0.0805228 0.102084 -0.0313187 0.175007 0.0988022 
-0.116065 0.0793566 0.115069 -0.104495 0.103837 0.12089 -0.115622 0.19492 0.121252 
-0.0486321 0.0788581 0.12843 -0.13167 0.12012 0.13525 -0.119698 0.116714 0.133508 
-0.113099 0.130454 0.133362 -0.136087 0.0626277 0.141864 -0.00636669 0.102376 0.137829 
-0.0754046 0.0745478 0.142961 -0.0953771 0.234364 -0.147151 -0.0772658 0.236622 -0.147455 
-0.0577874 0.25296 -0.146876 -0.0378616 0.253021 -0.146876 -0.096254 0.300479 -0.14669 
-0.078517 0.299052 -0.145406 -0.14104 0.325267 -0.145271 -0.113632 0.325267 -0.145271 
-0.0578715 0.3256 -0.146535 -0.0378122 0.325608 -0.146534 -0.13901 0.386274 -0.143242 
-0.128237 0.388516 -0.145088 -0.115662 0.386274 -0.143242 -0.0970759 0.388468 -0.145719 
-0.091809 0.221329 -0.140566 -0.0785968 0.219999 -0.141979 -0.0482762 0.246464 -0.137569 
-0.069043 0.248398 -0.14012 -0.0955668 0.282241 -0.139575 -0.0800583 0.280601 -0.138286 
-0.0672022 0.323487 -0.13831 -0.128488 0.359296 -0.142656 -0.0579642 0.254769 -0.128757 
-0.0376267 0.254781 -0.128759 -0.0464354 0.321554 -0.135759 -0.0579879 0.328114 -0.129613 
-0.0376505 0.328125 -0.129616 -0.102143 0.334322 -0.124831 -0.0716173 0.246511 -0.119353 
-0.0508506 0.244577 -0.116802 -0.0997488 0.258019 -0.118315 -0.0755342 0.258164 -0.118315 
-0.0631221 0.313096 -0.11707 -0.0490098 0.319666 -0.114992 -0.14104 0.325267 -0.117864 
-0.113632 0.325267 -0.117864 -0.0985629 0.337451 -0.114452 -0.0526931 0.334057 -0.118091 
-0.0226918 0.334057 -0.118091 -0.0757434 0.341566 -0.118127 -0.0492061 0.37854 -0.114604 
-0.0261789 0.37854 -0.114604 -0.13901 0.386274 -0.119893 -0.127427 0.384736 -0.116637 
-0.0972895 0.38477 -0.116536 -0.113861 0.271018 -0.107388 -0.0985829 0.338812 -0.107003 
-0.043538 0.369995 -0.109701 -0.123047 0.213611 -0.0988854 -0.108876 0.218487 -0.100856 
-0.128032 0.266142 -0.105417 -0.0819397 0.313713 -0.0998444 -0.0627831 0.322216 -0.1003 
-0.117172 0.330671 -0.103717 -0.105907 0.332502 -0.0994496 -0.0695274 0.339631 -0.102646 
-0.0347533 0.346805 -0.102546 -0.101745 0.378866 -0.0981146 -0.0965367 0.383341 -0.101339 
-0.0748239 0.380146 -0.100328 -0.102899 0.397547 -0.0967248 -0.081191 0.393481 -0.0990957 
-0.0997486 0.257889 -0.0941007 -0.0755341 0.258034 -0.0941005 -0.126393 0.271138 -0.0912456 
-0.112227 0.277109 -0.0932227 -0.0541019 0.329603 -0.0948318 -0.0971085 0.334239 -0.0945879 
-0.0779581 0.335799 -0.0946756 -0.0622449 0.36912 -0.0965659 -0.0398571 0.36912 -0.0965659 
-0.0815265 0.379888 -0.0935854 -0.0492061 0.37854 -0.0915769 -0.0261789 0.37854 -0.0915769 
-0.0755452 0.385681 -0.0903736 -0.107232 0.222388 -0.0866794 -0.0978877 0.313061 -0.0857616 
-0.0497544 0.33565 -0.0893381 -0.0226918 0.334057 -0.0880899 -0.131545 0.344206 -0.086828 
-0.0995482 0.344217 -0.0872651 -0.0291239 0.35184 -0.0843877 -0.104213 0.371144 -0.0824922 
-0.0971317 0.393409 -0.0850056 -0.0792074 0.397186 -0.0868318 -0.0615593 0.395341 -0.0826384 
-0.128533 0.206211 -0.0780322 -0.119812 0.205164 -0.0778476 -0.131101 0.214992 -0.0762139 
-0.119032 0.232127 -0.0798777 -0.128266 0.232706 -0.0803416 -0.122284 0.237365 -0.0797347 
-0.0332526 0.242125 -0.081358 -0.0144371 0.24215 -0.0814397 -0.0332921 0.309169 -0.0801059 
-0.0144764 0.309196 -0.0801874 -0.0838775 0.31404 -0.0776886 -0.0699565 0.312731 -0.0821063 
-0.0480209 0.359561 -0.0809129 -0.0262472 0.367862 -0.0775533 -0.00442003 0.367944 -0.0773318 
-0.1267 0.37121 -0.0821468 -0.0976636 0.380146 -0.077488 -0.0748239 0.380146 -0.077488 
-0.119908 0.207327 -0.06913 -0.128628 0.208375 -0.0693143 -0.101672 0.222187 -0.0747079 
-0.0872444 0.220975 -0.0734135 -0.11561 0.22856 -0.0717445 -0.100267 0.276202 -0.0748379 
-0.0858391 0.27499 -0.0735434 -0.0561461 0.313711 -0.0740163 -0.100746 0.333995 -0.0744061 
-0.071742 0.333995 -0.0744061 -0.0347533 0.34683 -0.0699489 -0.0619052 0.357125 -0.0708945 
-0.0622512 0.369104 -0.0741739 -0.0398508 0.369104 -0.0741739 -0.077052 0.380519 -0.0679482 
-0.0537396 0.380481 -0.0680198 -0.0885054 0.396028 -0.0693546 -0.0626733 0.393311 -0.068782 
-0.0568758 0.393481 -0.0747481 -0.103236 0.222317 -0.0602795 -0.0331411 0.241049 -0.0625437 
-0.0143255 0.241074 -0.0626254 -0.101831 0.276332 -0.0604094 -0.0331804 0.308093 -0.0612915 
-0.0143649 0.30812 -0.0613733 -0.0804766 0.331422 -0.066588 -0.051074 0.331494 -0.0666773 
-0.0977845 0.333196 -0.06676 -0.0673841 0.333196 -0.06676 -0.024396 0.33705 -0.0631191 
-0.0695597 0.355931 -0.0661114 -0.0363656 0.355931 -0.0661114 -0.063744 0.364586 -0.0602958 
-0.0421813 0.364586 -0.0602958 -0.0238706 0.373249 -0.0658459 -0.0010665 0.373125 -0.0657191 
-0.110519 0.212921 -0.0568542 -0.0965873 0.214089 -0.0558279 -0.0888081 0.221106 -0.0589851 
-0.111656 0.26455 -0.0579515 -0.0977231 0.265721 -0.0569251 -0.0874028 0.27512 -0.0591151 
-0.0582596 0.287731 -0.0536955 -0.0978877 0.313061 -0.0597512 -0.0718773 0.313061 -0.0597512 
-0.131108 0.344233 -0.0548312 -0.0991113 0.344245 -0.0552685 -0.00106924 0.355555 -0.0596127 
-0.0263852 0.367768 -0.0556912 -0.00448783 0.36784 -0.0555058 -0.126394 0.371237 -0.0597321 
-0.103913 0.371132 -0.0599431 -0.0729171 0.385169 -0.0593744 -0.0467549 0.384969 -0.0598482 
-0.12089 0.39016 -0.0546843 -0.103672 0.390429 -0.0530914 -0.0800826 0.393146 -0.053664 
-0.0686325 0.314966 -0.0487358 -0.0414247 0.315287 -0.0486806 -0.117952 0.319289 -0.0463036 
-0.0907448 0.319289 -0.0463036 -0.142484 0.335762 -0.0456915 -0.112682 0.335762 -0.0456915 
-0.0293378 0.352034 -0.0521913 -0.056094 0.373585 -0.0512771 -0.111563 0.214055 -0.042922 
-0.0976314 0.215226 -0.0418957 -0.112699 0.265687 -0.0440195 -0.0987669 0.266855 -0.042993 
-0.030735 0.345423 -0.0409444 -0.0284906 0.340883 -0.0391563 -0.0239965 0.373198 -0.0430193 
-0.00114766 0.37311 -0.0428947 -0.139045 0.378146 -0.0422535 -0.0942334 0.378229 -0.0393313 
-0.0709353 0.378229 -0.0393313 -0.0923138 0.388955 -0.0447345 -0.114543 0.393664 -0.0387466 
-0.0619381 0.309785 -0.032866 -0.0357281 0.309785 -0.032866 -0.0977845 0.333228 -0.0363584 
-0.0673841 0.333228 -0.0363584 -0.0695597 0.355931 -0.0329174 -0.0363656 0.355931 -0.0329174 
-0.0632239 0.394682 -0.033778 -0.0407883 0.395269 -0.0326455 -0.0293624 0.208445 -0.0286774 
-0.0295426 0.256626 -0.0283532 -0.0583164 0.284719 -0.028887 -0.00249521 0.344848 -0.0278929 
[...]
POINT_DATA 1387
FIELD FieldData 8
id 1 1387 int
3781 3801 3970 3858 3894 3730 3749 3789 3994 
3744 3023 3745 2648 2739 3985 3917 3359 2755 
3927 2901 3952 3937 3738 3966 3785 3823 3852 
3981 3180 3932 3808 3024 3685 3908 3296 3931 
3844 3586 3244 3360 3877 3135 3773 3961 3960 
3716 3896 3830 3939 3731 3943 3242 3903 3920 
3918 3714 3879 2484 3727 3757 3938 3182 3885 
3853 3787 3814 3815 3975 3831 3746 3971 3820 
3297 3954 3873 3919 3925 3786 3906 3962 3847 
3782 2961 3688 3720 2902 3836 3982 3825 2482 
3803 3950 3988 3788 3940 3854 3775 3719 3406 
3911 3587 3955 3909 3747 3790 3765 3910 3996 
3760 3631 3686 3968 3871 3325 2823 3768 3863 
2550 3864 2509 3721 3941 3632 3136 3776 3875 
3956 3689 3969 3729 4867 4871 4794 4798 4869 
4865 4442 4446 4796 4800 4444 4018 4448 4022 
4866 4870 4790 4786 4868 4872 4788 4020 4795 
4799 4792 4797 4793 4024 4787 4791 4690 4694 
4789 4785 4443 4447 4692 4226 4230 4696 4228 
4232 4445 4019 4023 4928 4017 4042 4922 4926 
4924 4602 4606 4021 4330 4334 4046 4605 4332 
4336 4441 4604 4691 4695 4925 4921 4286 4693 
4689 4044 4048 4608 4229 4225 4284 4927 4594 
4227 4231 4084 4088 4058 4090 4596 4600 4288 
5050 5054 5053 5056 5052 4923 4850 4854 4852 
4856 4598 4603 4043 4060 4064 4086 4333 4329 
5055 5051 4914 4918 5049 4916 4920 4607 4331 
4335 4047 4282 4045 4041 4285 4281 4196 4200 
4601 4915 4851 4855 4917 4853 4849 4283 4287 
4194 4198 4138 4026 4030 4028 4032 4140 4144 
4938 4942 4919 4940 4944 4913 4658 4595 4599 
4085 4089 4063 4061 4057 4087 4091 4485 4474 
4477 4597 4593 4483 4487 4475 4479 4258 4262 
4059 4660 4939 4943 4941 4937 4092 4139 4141 
4137 4260 4197 4193 4481 4264 4578 4582 4195 
4199 4027 4031 4029 4025 4954 4956 4659 4096 
4661 4094 4074 4478 4580 4584 4955 4957 4476 
4480 4259 4263 4076 4078 4095 4261 4482 4860 
4093 4257 4579 4583 4080 4073 4581 4577 4882 
4861 4075 4082 4886 4884 4888 4362 4366 4077 
4079 4083 4364 4368 4346 4350 4676 4348 4352 
4883 4887 4885 4674 4678 4881 4162 4166 4081 
4164 4168 4680 4966 4964 4968 4314 4318 4012 
4316 4320 4008 4365 4361 4962 4634 4638 4347 
4363 4351 4367 4354 4266 4636 4034 4270 4640 
4677 4152 4349 4345 4486 4473 4356 4268 4963 
4967 4965 4961 4675 4679 4484 4488 4498 4146 
4150 4004 4165 4036 4040 4673 4272 4038 4734 
4730 4319 4115 4355 4119 4736 4163 4167 4005 
4637 4732 4035 4002 4117 4121 4068 4072 4148 
4161 4212 4269 4774 4770 4635 4639 4315 4210 
4214 4154 4158 4772 4776 4633 4071 4156 4160 
4313 4357 4500 4389 4037 4265 4530 4499 4534 
4234 4387 4391 4238 4066 4267 4070 4271 4127 
4729 4149 4114 4236 4065 4216 4393 4125 4317 
5106 5110 5108 5112 4731 4735 4001 4159 4147 
4151 4123 4733 4007 4124 4118 4122 4069 4039 
4240 4003 4006 4536 5107 5111 5109 5105 4771 
4775 4450 4454 4586 4590 4418 4422 4235 4116 
4239 4120 4178 4773 4182 4067 4769 4452 4456 
4157 4128 4153 4033 4424 4592 4145 4501 5082 
5086 5084 5088 4538 4388 4211 4215 4155 4126 
4113 4180 4184 4237 4233 4296 4209 4532 4420 
4394 4533 4529 5083 5087 5085 5081 4591 4559 
4555 4531 4395 4535 4399 4290 4392 4294 4338 
4342 4588 4292 4340 4344 4213 4557 4451 4455 
4587 4611 4615 4419 4423 4506 4510 4218 4724 
4453 4449 4508 4512 4397 4386 4421 4417 4589 
4585 4561 4613 5034 5038 4874 4826 4830 5036 
5040 4623 4814 4738 4539 4742 4722 4726 4291 
4295 4179 4183 4541 4728 4617 4181 4177 4293 
4289 4619 5035 5039 4878 5037 5033 4810 4621 
4832 4828 4556 4560 4274 4740 4050 4744 4610 
4396 4052 4390 4341 4337 4558 4562 4827 4831 
4624 4876 4880 4812 4816 4612 4400 4339 4343 
4725 4509 4505 4398 4385 4614 4879 4875 4739 
4743 4723 4727 4829 4825 4616 4507 4511 4219 
4741 4737 4721 4553 4566 4618 4620 4811 4622 
4877 4568 4815 4564 4873 4813 4809 4275 4563 
4567 4609 4051 4055 4053 4565 4554 3899 3849 
3161 3784 3818 3405 3838 3755 3945 3811 3440 
3778 3876 3972 3934 2591 3762 3860 5127 2481 
3856 3900 3806 3717 3964 3957 3741 3978 3723 
2989 3922 3711 3888 3869 2927 2483 3867 3441 
3737 3850 3614 3805 3324 3809 3851 3819 3712 
3890 3914 3162 2824 3771 2751 3766 2690 3758 
3840 3991 3691 3812 3208 2962 3946 3791 3665 
3732 3442 3668 2748 3995 3770 3889 2749 3828 
3870 3779 3764 3263 5042 5046 3718 5047 5122 
5123 5126 3777 3385 3916 3763 3913 3692 3999 
3993 3979 3974 2963 3924 3998 3772 3923 3667 
2790 2928 3947 3750 3739 3935 3715 3810 3751 
3892 3443 3461 3733 3835 3298 3861 3846 3958 
3936 3754 3833 2753 3977 3930 3883 3725 3843 
3444 3926 3326 2868 3798 3792 3848 3693 4902 
4898 4904 4714 4718 4900 4716 4720 4903 4899 
4834 4838 4901 4897 4840 4836 4994 4998 4996 
5000 4715 4719 4626 4630 4717 4713 4628 4632 
4999 4835 4839 4837 4833 4515 4519 4517 4521 
4995 4997 4993 4978 4402 4406 4404 4408 4972 
4976 4974 4627 4523 4631 4527 4525 4629 4625 
4514 4973 4977 4975 4979 4702 4698 4516 4520 
4700 4704 4518 4522 4403 4407 4405 4401 4980 
4984 4982 4986 4758 4754 4426 4430 4756 4760 
4062 4428 4432 5058 5062 5060 5064 4703 4699 
4524 4528 4298 4701 4697 4526 4513 4981 4985 
5061 5057 4983 4987 4762 4766 4490 4494 4370 
4753 4302 4142 4764 4492 4372 4496 4376 5059 
5063 5010 5014 4890 5012 5016 4759 4755 4892 
4896 4427 4431 4202 4206 4768 4757 4374 4300 
4304 4429 4425 5011 5015 4988 4992 5009 5013 
4894 4491 4495 4546 4204 4208 4548 4489 4552 
4493 4971 4989 4990 4970 4763 4767 4889 4686 
4662 4682 4550 4458 4664 4684 4460 4946 4950 
4891 4895 4948 4952 4893 4666 4670 4761 4462 
4371 4375 4303 4143 4765 4299 4688 4301 4668 
4672 4464 4373 4369 4947 4969 4991 4459 4203 
4207 4205 4201 4297 4457 4958 4951 4953 4960 
4949 4945 4683 4687 4646 4663 4642 4551 4547 
4463 4685 4657 4681 4648 4549 4461 4644 4545 
4959 4864 4862 5044 5048 4667 4671 4669 4665 
5043 5045 5041 4858 4647 4643 4641 4645 5121 
5128 5124 5125 4859 4863 4857 5090 5094 5092 
5096 4650 4654 4652 4656 4010 5091 5095 5002 
5006 5093 5089 4802 4806 5004 5008 4808 4804 
4384 4380 4014 4746 4750 4378 4382 4748 4752 
4306 4310 4308 4312 5098 5102 5099 5103 5003 
5007 5104 5100 5101 5097 4803 4807 5005 5001 
4801 4653 4651 4805 4655 4358 4186 4192 4360 
4708 4649 4747 4751 4379 4383 4706 4710 4502 
4745 4190 4749 4540 4309 4305 4016 4381 4712 
4377 4245 5078 5080 4307 4311 4243 4247 4103 
4013 4009 4188 4101 5074 5076 4249 4504 4353 
5075 5079 5077 5073 4707 4711 4503 4185 4709 
4015 4105 4410 4414 4187 4191 4705 4099 4324 
4328 4189 4412 4416 4246 4011 5026 5030 4244 
4248 4100 4104 4359 4102 4250 4906 4910 5032 
5028 4542 4908 4912 4434 4438 4322 4326 4544 
4497 4436 4440 4106 5066 5070 5027 5031 5068 
5072 5029 4905 4255 4130 4134 4325 4321 4253 
4409 4242 5067 5071 5018 5022 4842 4846 5069 
4911 5065 4907 5025 5020 5024 4909 4411 4415 
4222 4170 4174 4132 4136 4220 4224 4413 4433 
5114 5119 5118 5116 5120 5019 5023 4930 4934 
5021 5017 4818 4822 4543 4844 4848 4435 4439 
4820 4824 4251 4537 4172 4176 4437 4276 5115 
5117 5113 4932 4936 4278 4570 4574 4466 4470 
4323 4054 4327 4107 4111 4056 4133 4468 4472 
4280 4572 4576 4931 4935 4843 4847 4252 4256 
4131 4135 4129 4109 4098 4221 4254 4241 4779 
4819 4782 4823 4933 4929 4845 4841 4777 4781 
4821 4817 4223 4171 4175 4173 4169 4277 4217 
4783 4778 4279 4571 4575 4467 4471 4780 4784 
4108 4112 4049 4110 4097 4469 4465 4273 4573 
4569 
type 1 1387 int
2 2 2 2 2 2 2 2 2 
2 2 2 2 2 2 2 2 2 
2 2 2 2 2 2 2 2 2 
2 2 2 2 2 2 2 2 2 
2 2 2 2 2 2 2 2 2 
2 2 2 2 2 2 2 2 2 
2 2 2 2 2 2 2 2 2 
2 2 2 2 2 2 2 2 2 
2 2 2 2 2 2 2 2 2 
2 2 2 2 2 2 2 2 2 
2 2 2 2 2 2 2 2 2 
2 2 2 2 2 2 2 2 2 
2 2 2 2 2 2 2 2 2 
2 2 2 2 2 2 2 2 2 
2 2 2 2 2 2 2 2 2 
2 2 2 2 2 2 2 2 2 
2 2 2 2 2 2 2 2 2 
2 2 2 2 2 2 2 2 2 
2 2 2 2 2 2 2 2 2 
2 2 2 2 2 2 2 2 2 
2 2 2 2 2 2 2 2 2 
2 2 2 2 2 2 2 2 2 
2 2 2 2 2 2 2 2 2 
2 2 2 2 2 2 2 2 2 
2 2 2 2 2 2 2 2 2 
2 2 2 2 2 2 2 2 2 
2 2 2 2 2 2 2 2 2 
2 2 2 2 2 2 2 2 2 
2 2 2 2 2 2 2 2 2 
2 2 2 2 2 2 2 2 2 
2 2 2 2 2 2 2 2 2 
2 2 2 2 2 2 2 2 2 
2 2 2 2 2 2 2 2 2 
2 2 2 2 2 2 2 2 2 
2 2 2 2 2 2 2 2 2 
2 2 2 2 2 2 2 2 2 
2 2 2 2 2 2 2 2 2 
2 2 2 2 2 2 2 2 2 
2 2 2 2 2 2 2 2 2 
2 2 2 2 2 2 2 2 2 
2 2 2 2 2 2 2 2 2 
2 2 2 2 2 2 2 2 2 
2 2 2 2 2 2 2 2 2 
2 2 2 2 2 2 2 2 2 
2 2 2 2 2 2 2 2 2 
2 2 2 2 2 2 2 2 2 
2 2 2 2 2 2 2 2 2 
2 2 2 2 2 2 2 2 2 
2 2 2 2 2 2 2 2 2 
2 2 2 2 2 2 2 2 2 
2 2 2 2 2 2 2 2 2 
2 2 2 2 2 2 2 2 2 
2 2 2 2 2 2 2 2 2 
2 2 2 2 2 2 2 2 2 
2 2 2 2 2 2 2 2 2 
2 2 2 2 2 2 2 2 2 
2 2 2 2 2 2 2 2 2 
2 2 2 2 2 2 2 2 2 
2 2 2 2 2 2 2 2 2 
2 2 2 2 2 2 2 2 2 
2 2 2 2 2 2 2 2 2 
2 2 2 2 2 2 2 2 2 
2 2 2 2 2 2 2 2 2 
2 2 2 2 2 2 2 2 2 
2 2 2 2 2 2 2 2 2 
2 2 2 2 2 2 2 2 2 
2 2 2 2 2 2 2 2 2 
2 2 2 2 2 2 2 2 2 
2 2 2 2 2 2 2 2 2 
2 2 2 2 2 2 2 2 2 
2 2 2 2 2 2 2 2 2 
2 2 2 2 2 2 2 2 2 
2 2 2 2 2 2 2 2 2 
2 2 2 2 2 2 2 2 2 
2 2 2 2 2 2 2 2 2 
2 2 2 2 2 2 2 2 2 
2 2 2 2 2 2 2 2 2 
2 2 2 2 2 2 2 2 2 
2 2 2 2 2 2 2 2 2 
2 2 2 2 2 2 2 2 2 
2 2 2 2 2 2 2 2 2 
2 2 2 2 2 2 2 2 2 
2 2 2 2 2 2 2 2 2 
2 2 2 2 2 2 2 2 2 
2 2 2 2 2 2 2 2 2 
2 2 2 2 2 2 2 2 2 
2 2 2 2 2 2 2 2 2 
2 2 2 2 2 2 2 2 2 
2 2 2 2 2 2 2 2 2 
2 2 2 2 2 2 2 2 2 
2 2 2 2 2 2 2 2 2 
2 2 2 2 2 2 2 2 2 
2 2 2 2 2 2 2 2 2 
2 2 2 2 2 2 2 2 2 
2 2 2 2 2 2 2 2 2 
2 2 2 2 2 2 2 2 2 
2 2 2 2 2 2 2 2 2 
2 2 2 2 2 2 2 2 2 
2 2 2 2 2 2 2 2 2 
2 2 2 2 2 2 2 2 2 
2 2 2 2 2 2 2 2 2 
2 2 2 2 2 2 2 2 2 
2 2 2 2 2 2 2 2 2 
2 2 2 2 2 2 2 2 2 
2 2 2 2 2 2 2 2 2 
2 2 2 2 2 2 2 2 2 
2 2 2 2 2 2 2 2 2 
2 2 2 2 2 2 2 2 2 
2 2 2 2 2 2 2 2 2 
2 2 2 2 2 2 2 2 2 
2 2 2 2 2 2 2 2 2 
2 2 2 2 2 2 2 2 2 
2 2 2 2 2 2 2 2 2 
2 2 2 2 2 2 2 2 2 
2 2 2 2 2 2 2 2 2 
2 2 2 2 2 2 2 2 2 
2 2 2 2 2 2 2 2 2 
2 2 2 2 2 2 2 2 2 
2 2 2 2 2 2 2 2 2 
2 2 2 2 2 2 2 2 2 
2 2 2 2 2 2 2 2 2 
2 2 2 2 2 2 2 2 2 
2 2 2 2 2 2 2 2 2 
2 2 2 2 2 2 2 2 2 
2 2 2 2 2 2 2 2 2 
2 2 2 2 2 2 2 2 2 
2 2 2 2 2 2 2 2 2 
2 2 2 2 2 2 2 2 2 
2 2 2 2 2 2 2 2 2 
2 2 2 2 2 2 2 2 2 
2 2 2 2 2 2 2 2 2 
2 2 2 2 2 2 2 2 2 
2 2 2 2 2 2 2 2 2 
2 2 2 2 2 2 2 2 2 
2 2 2 2 2 2 2 2 2 
2 2 2 2 2 2 2 2 2 
2 2 2 2 2 2 2 2 2 
2 2 2 2 2 2 2 2 2 
2 2 2 2 2 2 2 2 2 
2 2 2 2 2 2 2 2 2 
2 2 2 2 2 2 2 2 2 
2 2 2 2 2 2 2 2 2 
2 2 2 2 2 2 2 2 2 
2 2 2 2 2 2 2 2 2 
2 2 2 2 2 2 2 2 2 
2 2 2 2 2 2 2 2 2 
2 2 2 2 2 2 2 2 2 
2 2 2 2 2 2 2 2 2 
2 2 2 2 2 2 2 2 2 
2 2 2 2 2 2 2 2 2 
2 2 2 2 2 2 2 2 2 
2 2 2 2 2 2 2 2 2 
2 2 2 2 2 2 2 2 2 
2 2 2 2 2 2 2 2 2 
2 
i 3 1387 int
0 0 0 0 0 0 0 0 0 
0 0 0 0 0 0 0 0 0 
0 0 0 0 0 0 0 0 0 
0 0 0 0 0 0 0 0 0 
0 0 0 0 0 0 0 0 0 
0 0 0 0 0 0 0 0 0 
0 0 0 0 0 0 0 0 0 
0 0 0 0 0 0 0 0 0 
0 0 0 0 0 0 0 0 0 
0 0 0 0 0 0 0 0 0 
0 0 0 0 0 0 0 0 0 
0 0 0 0 0 0 0 0 0 
0 0 0 0 0 0 0 0 0 
0 0 0 0 0 0 0 0 0 
0 0 0 0 0 0 0 0 0 
0 0 0 0 0 0 0 0 0 
0 0 0 0 0 0 0 0 0 
0 0 0 0 0 0 0 0 0 
0 0 0 0 0 0 0 0 0 
0 0 0 0 0 0 0 0 0 
0 0 0 0 0 0 0 0 0 
0 0 0 0 0 0 0 0 0 
0 0 0 0 0 0 0 0 0 
0 0 0 0 0 0 0 0 0 
0 0 0 0 0 0 0 0 0 
0 0 0 0 0 0 0 0 0 
0 0 0 0 0 0 0 0 0 
0 0 0 0 0 0 0 0 0 
0 0 0 0 0 0 0 0 0 
0 0 0 0 0 0 0 0 0 
0 0 0 0 0 0 0 0 0 
0 0 0 0 0 0 0 0 0 
0 0 0 0 0 0 0 0 0 
0 0 0 0 0 0 0 0 0 
0 0 0 0 0 0 0 0 0 
0 0 0 0 0 0 0 0 0 
0 0 0 0 0 0 0 0 0 
0 0 0 0 0 0 0 0 0 
0 0 0 0 0 0 0 0 0 
0 0 0 0 0 0 0 0 0 
0 0 0 0 0 0 0 0 0 
0 0 0 0 0 0 0 0 0 
0 0 0 0 0 0 0 0 0 
0 0 0 0 0 0 0 0 0 
0 0 0 0 0 0 0 0 0 
0 0 0 0 0 0 0 0 0 
0 0 0 0 0 0 0 0 0 
0 0 0 0 0 0 0 0 0 
0 0 0 0 0 0 0 0 0 
0 0 0 0 0 0 0 0 0 
0 0 0 0 0 0 0 0 0 
0 0 0 0 0 0 0 0 0 
0 0 0 0 0 0 0 0 0 
0 0 0 0 0 0 0 0 0 
0 0 0 0 0 0 0 0 0 
0 0 0 0 0 0 0 0 0 
0 0 0 0 0 0 0 0 0 
0 0 0 0 0 0 0 0 0 
0 0 0 0 0 0 0 0 0 
0 0 0 0 0 0 0 0 0 
0 0 0 0 0 0 0 0 0 
0 0 0 0 0 0 0 0 0 
0 0 0 0 0 0 0 0 0 
0 0 0 0 0 0 0 0 0 
0 0 0 0 0 0 0 0 0 
0 0 0 0 0 0 0 0 0 
0 0 0 0 0 0 0 0 0 
0 0 0 0 0 0 0 0 0 
0 0 0 0 0 0 0 0 0 
0 0 0 0 0 0 0 0 0 
0 0 0 0 0 0 0 0 0 
0 0 0 0 0 0 0 0 0 
0 0 0 0 0 0 0 0 0 
0 0 0 0 0 0 0 0 0 
0 0 0 0 0 0 0 0 0 
0 0 0 0 0 0 0 0 0 
0 0 0 0 0 0 0 0 0 
0 0 0 0 0 0 0 0 0 
0 0 0 0 0 0 0 0 0 
0 0 0 0 0 0 0 0 0 
0 0 0 0 0 0 0 0 0 
0 0 0 0 0 0 0 0 0 
0 0 0 0 0 0 0 0 0 
0 0 0 0 0 0 0 0 0 
0 0 0 0 0 0 0 0 0 
0 0 0 0 0 0 0 0 0 
0 0 0 0 0 0 0 0 0 
0 0 0 0 0 0 0 0 0 
0 0 0 0 0 0 0 0 0 
0 0 0 0 0 0 0 0 0 
0 0 0 0 0 0 0 0 0 
0 0 0 0 0 0 0 0 0 
0 0 0 0 0 0 0 0 0 
0 0 0 0 0 0 0 0 0 
0 0 0 0 0 0 0 0 0 
0 0 0 0 0 0 0 0 0 
0 0 0 0 0 0 0 0 0 
0 0 0 0 0 0 0 0 0 
0 0 0 0 0 0 0 0 0 
0 0 0 0 0 0 0 0 0 
0 0 0 0 0 0 0 0 0 
0 0 0 0 0 0 0 0 0 
0 0 0 0 0 0 0 0 0 
0 0 0 0 0 0 0 0 0 
0 0 0 0 0 0 0 0 0 
0 0 0 0 0 0 0 0 0 
0 0 0 0 0 0 0 0 0 
0 0 0 0 0 0 0 0 0 
0 0 0 0 0 0 0 0 0 
0 0 0 0 0 0 0 0 0 
0 0 0 0 0 0 0 0 0 
0 0 0 0 0 0 0 0 0 
0 0 0 0 0 0 0 0 0 
0 0 0 0 0 0 0 0 0 
0 0 0 0 0 0 0 0 0 
0 0 0 0 0 0 0 0 0 
0 0 0 0 0 0 0 0 0 
0 0 0 0 0 0 0 0 0 
0 0 0 0 0 0 0 0 0 
0 0 0 0 0 0 0 0 0 
0 0 0 0 0 0 0 0 0 
0 0 0 0 0 0 0 0 0 
0 0 0 0 0 0 0 0 0 
0 0 0 0 0 0 0 0 0 
0 0 0 0 0 0 0 0 0 
0 0 0 0 0 0 0 0 0 
0 0 0 0 0 0 0 0 0 
0 0 0 0 0 0 0 0 0 
0 0 0 0 0 0 0 0 0 
0 0 0 0 0 0 0 0 0 
0 0 0 0 0 0 0 0 0 
0 0 0 0 0 0 0 0 0 
0 0 0 0 0 0 0 0 0 
0 0 0 0 0 0 0 0 0 
0 0 0 0 0 0 0 0 0 
0 0 0 0 0 0 0 0 0 
0 0 0 0 0 0 0 0 0 
0 0 0 0 0 0 0 0 0 
0 0 0 0 0 0 0 0 0 
0 0 0 0 0 0 0 0 0 
0 0 0 0 0 0 0 0 0 
0 0 0 0 0 0 0 0 0 
0 0 0 0 0 0 0 0 0 
0 0 0 0 0 0 0 0 0 
0 0 0 0 0 0 0 0 0 
0 0 0 0 0 0 0 0 0 
0 0 0 0 0 0 0 0 0 
0 0 0 0 0 0 0 0 0 
0 0 0 0 0 0 0 0 0 
0 0 0 0 0 0 0 0 0 
0 0 0 0 0 0 0 0 0 
0 0 0 0 0 0 0 0 0 
0 0 0 0 0 0 0 0 0 
0 0 0 0 0 0 0 0 0 
0 0 0 0 0 0 0 0 0 
0 0 0 0 0 0 0 0 0 
0 0 0 0 0 0 0 0 0 
0 0 0 0 0 0 0 0 0 
0 0 0 0 0 0 0 0 0 
0 0 0 0 0 0 0 0 0 
0 0 0 0 0 0 0 0 0 
0 0 0 0 0 0 0 0 0 
0 0 0 0 0 0 0 0 0 
0 0 0 0 0 0 0 0 0 
0 0 0 0 0 0 0 0 0 
0 0 0 0 0 0 0 0 0 
0 0 0 0 0 0 0 0 0 
0 0 0 0 0 0 0 0 0 
0 0 0 0 0 0 0 0 0 
0 0 0 0 0 0 0 0 0 
0 0 0 0 0 0 0 0 0 
0 0 0 0 0 0 0 0 0 
0 0 0 0 0 0 0 0 0 
0 0 0 0 0 0 0 0 0 
0 0 0 0 0 0 0 0 0 
0 0 0 0 0 0 0 0 0 
0 0 0 0 0 0 0 0 0 
0 0 0 0 0 0 0 0 0 
0 0 0 0 0 0 0 0 0 
0 0 0 0 0 0 0 0 0 
0 0 0 0 0 0 0 0 0 
0 0 0 0 0 0 0 0 0 
0 0 0 0 0 0 0 0 0 
0 0 0 0 0 0 0 0 0 
0 0 0 0 0 0 0 0 0 
0 0 0 0 0 0 0 0 0 
0 0 0 0 0 0 0 0 0 
0 0 0 0 0 0 0 0 0 
0 0 0 0 0 0 0 0 0 
0 0 0 0 0 0 0 0 0 
0 0 0 0 0 0 0 0 0 
0 0 0 0 0 0 0 0 0 
0 0 0 0 0 0 0 0 0 
0 0 0 0 0 0 0 0 0 
0 0 0 0 0 0 0 0 0 
0 0 0 0 0 0 0 0 0 
0 0 0 0 0 0 0 0 0 
0 0 0 0 0 0 0 0 0 
0 0 0 0 0 0 0 0 0 
0 0 0 0 0 0 0 0 0 
0 0 0 0 0 0 0 0 0 
0 0 0 0 0 0 0 0 0 
0 0 0 0 0 0 0 0 0 
0 0 0 0 0 0 0 0 0 
0 0 0 0 0 0 0 0 0 
0 0 0 0 0 0 0 0 0 
0 0 0 0 0 0 0 0 0 
0 0 0 0 0 0 0 0 0 
0 0 0 0 0 0 0 0 0 
0 0 0 0 0 0 0 0 0 
0 0 0 0 0 0 0 0 0 
0 0 0 0 0 0 0 0 0 
0 0 0 0 0 0 0 0 0 
0 0 0 0 0 0 0 0 0 
0 0 0 0 0 0 0 0 0 
0 0 0 0 0 0 0 0 0 
0 0 0 0 0 0 0 0 0 
0 0 0 0 0 0 0 0 0 
0 0 0 0 0 0 0 0 0 
0 0 0 0 0 0 0 0 0 
0 0 0 0 0 0 0 0 0 
0 0 0 0 0 0 0 0 0 
0 0 0 0 0 0 0 0 0 
0 0 0 0 0 0 0 0 0 
0 0 0 0 0 0 0 0 0 
0 0 0 0 0 0 0 0 0 
0 0 0 0 0 0 0 0 0 
0 0 0 0 0 0 0 0 0 
0 0 0 0 0 0 0 0 0 
0 0 0 0 0 0 0 0 0 
0 0 0 0 0 0 0 0 0 
0 0 0 0 0 0 0 0 0 
0 0 0 0 0 0 0 0 0 
0 0 0 0 0 0 0 0 0 
0 0 0 0 0 0 0 0 0 
0 0 0 0 0 0 0 0 0 
0 0 0 0 0 0 0 0 0 
0 0 0 0 0 0 0 0 0 
0 0 0 0 0 0 0 0 0 
0 0 0 0 0 0 0 0 0 
0 0 0 0 0 0 0 0 0 
0 0 0 0 0 0 0 0 0 
0 0 0 0 0 0 0 0 0 
0 0 0 0 0 0 0 0 0 
0 0 0 0 0 0 0 0 0 
0 0 0 0 0 0 0 0 0 
0 0 0 0 0 0 0 0 0 
0 0 0 0 0 0 0 0 0 
0 0 0 0 0 0 0 0 0 
0 0 0 0 0 0 0 0 0 
0 0 0 0 0 0 0 0 0 
0 0 0 0 0 0 0 0 0 
0 0 0 0 0 0 0 0 0 
0 0 0 0 0 0 0 0 0 
0 0 0 0 0 0 0 0 0 
0 0 0 0 0 0 0 0 0 
0 0 0 0 0 0 0 0 0 
0 0 0 0 0 0 0 0 0 
0 0 0 0 0 0 0 0 0 
0 0 0 0 0 0 0 0 0 
0 0 0 0 0 0 0 0 0 
0 0 0 0 0 0 0 0 0 
0 0 0 0 0 0 0 0 0 
0 0 0 0 0 0 0 0 0 
0 0 0 0 0 0 0 0 0 
0 0 0 0 0 0 0 0 0 
0 0 0 0 0 0 0 0 0 
0 0 0 0 0 0 0 0 0 
0 0 0 0 0 0 0 0 0 
0 0 0 0 0 0 0 0 0 
0 0 0 0 0 0 0 0 0 
0 0 0 0 0 0 0 0 0 
0 0 0 0 0 0 0 0 0 
0 0 0 0 0 0 0 0 0 
0 0 0 0 0 0 0 0 0 
0 0 0 0 0 0 0 0 0 
0 0 0 0 0 0 0 0 0 
0 0 0 0 0 0 0 0 0 
0 0 0 0 0 0 0 0 0 
0 0 0 0 0 0 0 0 0 
0 0 0 0 0 0 0 0 0 
0 0 0 0 0 0 0 0 0 
0 0 0 0 0 0 0 0 0 
0 0 0 0 0 0 0 0 0 
0 0 0 0 0 0 0 0 0 
0 0 0 0 0 0 0 0 0 
0 0 0 0 0 0 0 0 0 
0 0 0 0 0 0 0 0 0 
0 0 0 0 0 0 0 0 0 
0 0 0 0 0 0 0 0 0 
0 0 0 0 0 0 0 0 0 
0 0 0 0 0 0 0 0 0 
0 0 0 0 0 0 0 0 0 
0 0 0 0 0 0 0 0 0 
0 0 0 0 0 0 0 0 0 
0 0 0 0 0 0 0 0 0 
0 0 0 0 0 0 0 0 0 
0 0 0 0 0 0 0 0 0 
0 0 0 0 0 0 0 0 0 
0 0 0 0 0 0 0 0 0 
0 0 0 0 0 0 0 0 0 
0 0 0 0 0 0 0 0 0 
0 0 0 0 0 0 0 0 0 
0 0 0 0 0 0 0 0 0 
0 0 0 0 0 0 0 0 0 
0 0 0 0 0 0 0 0 0 
0 0 0 0 0 0 0 0 0 
0 0 0 0 0 0 0 0 0 
0 0 0 0 0 0 0 0 0 
0 0 0 0 0 0 0 0 0 
0 0 0 0 0 0 0 0 0 
0 0 0 0 0 0 0 0 0 
0 0 0 0 0 0 0 0 0 
0 0 0 0 0 0 0 0 0 
0 0 0 0 0 0 0 0 0 
0 0 0 0 0 0 0 0 0 
0 0 0 0 0 0 0 0 0 
0 0 0 0 0 0 0 0 0 
0 0 0 0 0 0 0 0 0 
0 0 0 0 0 0 0 0 0 
0 0 0 0 0 0 0 0 0 
0 0 0 0 0 0 0 0 0 
0 0 0 0 0 0 0 0 0 
0 0 0 0 0 0 0 0 0 
0 0 0 0 0 0 0 0 0 
0 0 0 0 0 0 0 0 0 
0 0 0 0 0 0 0 0 0 
0 0 0 0 0 0 0 0 0 
0 0 0 0 0 0 0 0 0 
0 0 0 0 0 0 0 0 0 
0 0 0 0 0 0 0 0 0 
0 0 0 0 0 0 0 0 0 
0 0 0 0 0 0 0 0 0 
0 0 0 0 0 0 0 0 0 
0 0 0 0 0 0 0 0 0 
0 0 0 0 0 0 0 0 0 
0 0 0 0 0 0 0 0 0 
0 0 0 0 0 0 0 0 0 
0 0 0 0 0 0 0 0 0 
0 0 0 0 0 0 0 0 0 
0 0 0 0 0 0 0 0 0 
0 0 0 0 0 0 0 0 0 
0 0 0 0 0 0 0 0 0 
0 0 0 0 0 0 0 0 0 
0 0 0 0 0 0 0 0 0 
0 0 0 0 0 0 0 0 0 
0 0 0 0 0 0 0 0 0 
0 0 0 0 0 0 0 0 0 
0 0 0 0 0 0 0 0 0 
0 0 0 0 0 0 0 0 0 
0 0 0 0 0 0 0 0 0 
0 0 0 0 0 0 0 0 0 
0 0 0 0 0 0 0 0 0 
0 0 0 0 0 0 0 0 0 
0 0 0 0 0 0 0 0 0 
0 0 0 0 0 0 0 0 0 
0 0 0 0 0 0 0 0 0 
0 0 0 0 0 0 0 0 0 
0 0 0 0 0 0 0 0 0 
0 0 0 0 0 0 0 0 0 
0 0 0 0 0 0 0 0 0 
0 0 0 0 0 0 0 0 0 
0 0 0 0 0 0 0 0 0 
0 0 0 0 0 0 0 0 0 
0 0 0 0 0 0 0 0 0 
0 0 0 0 0 0 0 0 0 
0 0 0 0 0 0 0 0 0 
0 0 0 0 0 0 0 0 0 
0 0 0 0 0 0 0 0 0 
0 0 0 0 0 0 0 0 0 
0 0 0 0 0 0 0 0 0 
0 0 0 0 0 0 0 0 0 
0 0 0 0 0 0 0 0 0 
0 0 0 0 0 0 0 0 0 
0 0 0 0 0 0 0 0 0 
0 0 0 0 0 0 0 0 0 
0 0 0 0 0 0 0 0 0 
0 0 0 0 0 0 0 0 0 
0 0 0 0 0 0 0 0 0 
0 0 0 0 0 0 0 0 0 
0 0 0 0 0 0 0 0 0 
0 0 0 0 0 0 0 0 0 
0 0 0 0 0 0 0 0 0 
0 0 0 0 0 0 0 0 0 
0 0 0 0 0 0 0 0 0 
0 0 0 0 0 0 0 0 0 
0 0 0 0 0 0 0 0 0 
0 0 0 0 0 0 0 0 0 
0 0 0 0 0 0 0 0 0 
0 0 0 0 0 0 0 0 0 
0 0 0 0 0 0 0 0 0 
0 0 0 0 0 0 0 0 0 
0 0 0 0 0 0 0 0 0 
0 0 0 0 0 0 0 0 0 
0 0 0 0 0 0 0 0 0 
0 0 0 0 0 0 0 0 0 
0 0 0 0 0 0 0 0 0 
0 0 0 0 0 0 0 0 0 
0 0 0 0 0 0 0 0 0 
0 0 0 0 0 0 0 0 0 
0 0 0 0 0 0 0 0 0 
0 0 0 0 0 0 0 0 0 
0 0 0 0 0 0 0 0 0 
0 0 0 0 0 0 0 0 0 
0 0 0 0 0 0 0 0 0 
0 0 0 0 0 0 0 0 0 
0 0 0 0 0 0 0 0 0 
0 0 0 0 0 0 0 0 0 
0 0 0 0 0 0 0 0 0 
0 0 0 0 0 0 0 0 0 
0 0 0 0 0 0 0 0 0 
0 0 0 0 0 0 0 0 0 
0 0 0 0 0 0 0 0 0 
0 0 0 0 0 0 0 0 0 
0 0 0 0 0 0 0 0 0 
0 0 0 0 0 0 0 0 0 
0 0 0 0 0 0 0 0 0 
0 0 0 0 0 0 0 0 0 
0 0 0 0 0 0 0 0 0 
0 0 0 0 0 0 0 0 0 
0 0 0 0 0 0 0 0 0 
0 0 0 0 0 0 0 0 0 
0 0 0 0 0 0 0 0 0 
0 0 0 0 0 0 0 0 0 
0 0 0 0 0 0 0 0 0 
0 0 0 0 0 0 0 0 0 
0 0 0 0 0 0 0 0 0 
0 0 0 0 0 0 0 0 0 
0 0 0 0 0 0 0 0 0 
0 0 0 0 0 0 0 0 0 
0 0 0 0 0 0 0 0 0 
0 0 0 0 0 0 0 0 0 
0 0 0 0 0 0 0 0 0 
0 0 0 0 0 0 0 0 0 
0 0 0 0 0 0 0 0 0 
0 0 0 0 0 0 0 0 0 
0 0 0 0 0 0 0 0 0 
0 0 0 0 0 0 0 0 0 
0 0 0 0 0 0 0 0 0 
0 0 0 0 0 0 0 0 0 
0 0 0 0 0 0 0 0 0 
0 0 0 0 0 0 0 0 0 
0 0 0 0 0 0 0 0 0 
0 0 0 0 0 0 0 0 0 
0 0 0 0 0 0 0 0 0 
0 0 0 0 0 0 0 0 0 
0 0 0 0 0 0 0 0 0 
0 0 0 0 0 0 0 0 0 
0 0 0 0 0 0 0 0 0 
0 0 0 0 0 0 0 0 0 
0 0 0 0 0 0 0 0 0 
0 0 0 0 0 0 0 0 0 
0 0 0 0 0 0 0 0 0 
0 0 0 0 0 0 0 0 0 
0 0 0 0 0 0 0 0 0 
0 0 0 0 0 0 0 0 0 
0 0 0 0 0 0 0 0 0 
0 0 0 0 0 0 0 0 0 
0 0 0 0 0 0 0 0 0 
0 0 0 0 0 0 0 0 0 
0 0 0 0 0 0 0 0 0 
0 0 0 0 0 0 0 0 0 
0 0 0 
v 3 1387 double
0.011712751963 -0.0037290385148 -0.0011384930739 0.012495207426 0.0006345144298 0.0021036559241 -0.00080340767465 0.032226313364 0.019562144673 
-0.015444081516 0.16804910789 -0.083079636091 -0.0045732150366 0.00083882554838 -0.025395399488 -0.11705411993 0.011019735801 -0.0039391850849 
-0.15472652587 0.054371164332 0.017807489663 -0.084222972431 0.081829535961 -0.0015657430505 -0.015970077835 0.15166809512 0.0078683031147 
0.0084999301845 0.1323890659 0.0081926522313 0.052127350168 -0.038472436292 -0.01117748464 -0.0056303209371 0.0085283445581 0.016039859049 
-0.027173646627 0.011902077028 0.021408443641 0.0086390268809 0.038845535794 -0.0015567670795 -0.048854073712 0.026637929028 -0.011723865227 
-0.078830096885 0.05744859893 0.00019912973901 0.022602082713 0.14032411163 -0.0074231145526 -0.017899220674 0.018956035487 -0.014433201323 
-0.01040054753 0.0058004044742 0.04555054737 0.019798951085 0.040401127349 0.0076420378047 -0.044479431725 0.065727100263 0.003206731493 