# vtk DataFile Version 5.1
Generated by LIGGGHTS
ASCII
DATASET POLYDATA
POINTS 400 float
-0.0631441 0.0582634 -0.143747 -0.144448 0.0672298 -0.144907 -0.109378 0.0629707 -0.144791 
-0.0613467 0.0728562 -0.144333 -0.107718 0.0787033 -0.143377 -0.0506937 0.0775124 -0.144071 
-0.0231779 0.0820327 -0.144355 -0.101362 0.0950011 -0.14519 -0.0232073 0.0919888 -0.143661 
-0.101297 0.106069 -0.145567 -0.144167 0.0582175 -0.14069 -0.112765 0.0549874 -0.138291 
-0.0439573 0.061992 -0.138013 -0.0135413 0.0651649 -0.13765 -0.136791 0.0713333 -0.138848 
-0.0508327 0.100339 -0.140356 -0.101923 0.10213 -0.136816 -0.137178 0.0579854 -0.133623 
-0.0683161 0.0592995 -0.128549 -0.0517143 0.063838 -0.131871 -0.111709 0.0726586 -0.13598 
-0.127336 0.0715628 -0.131567 -0.0582374 0.0724579 -0.130247 -0.0340252 0.0753156 -0.12747 
-0.0561461 0.0826274 -0.132445 -0.0438083 0.0810204 -0.128768 -0.0186774 0.0909549 -0.131947 
-0.144021 0.0598338 -0.123412 -0.10603 0.0631801 -0.123238 -0.0397659 0.0645726 -0.122278 
-0.137534 0.0960125 -0.121145 -0.104512 0.055433 -0.114728 -0.113383 0.0647264 -0.11444 
-0.079532 0.0630761 -0.112966 -0.055803 0.065379 -0.113779 -0.0294094 0.0709893 -0.111949 
-0.142875 0.075737 -0.121277 -0.08002 0.0836853 -0.112562 -0.0465037 0.0683266 -0.108349 
-0.0168952 0.0667993 -0.107524 -0.144948 0.0703773 -0.105741 -0.10718 0.0604477 -0.101688 
-0.00977294 0.057815 -0.100939 -0.0376925 0.0707001 -0.103091 -0.00825556 0.0698037 -0.100054 
-0.140006 0.082153 -0.10131 -0.0556478 0.0577856 -0.0973157 -0.105299 0.0565519 -0.0837875 
-0.0862438 0.0597816 -0.0889079 -0.0759492 0.0586438 -0.0885813 -0.0460694 0.0587336 -0.0854238 
-0.0689543 0.0941547 -0.0872359 -0.0364051 0.0686956 -0.0821529 -0.103023 0.0880769 -0.0758161 
-0.051051 0.0888165 -0.0823445 -0.0585523 0.0576334 -0.0737617 -0.102314 0.0678911 -0.0715741 
-0.0207404 0.0699637 -0.0766919 -0.00949447 0.0678509 -0.0667021 -0.115325 0.0851668 -0.0710396 
-0.0848825 0.0868846 -0.0727564 -0.118106 0.060209 -0.0626805 -0.0622667 0.0655257 -0.0663212 
-0.0527561 0.0762673 -0.0581181 -0.0239417 0.0816654 -0.0601247 -0.0968786 0.0805154 -0.0669474 
-0.106809 0.0716275 -0.0543104 -0.144432 0.0665706 -0.0466037 -0.130647 0.0601193 -0.0464046 
-0.0825843 0.0748546 -0.0477905 -0.0121157 0.0827347 -0.0520755 -0.0529626 0.0899334 -0.0495144 
-0.0288713 0.072607 -0.0381093 -0.0380951 0.0896304 -0.0454599 -0.0726046 0.0585439 -0.0348349 
-0.127583 0.0670943 -0.0307991 -0.104349 0.0656392 -0.0326997 -0.0665247 0.076449 -0.0336968 
-0.0286902 0.0560608 -0.0293131 -0.0800535 0.0691627 -0.0263776 -0.093966 0.0652005 -0.0189909 
-0.0908491 0.0756216 -0.0180388 -0.0809313 0.0751393 -0.0185524 -0.0488331 0.071982 -0.019761 
-0.0565629 0.0553076 -0.00860804 -0.108926 0.0584896 -0.00576452 -0.0585171 0.0657808 -0.0103262 
-0.0163855 0.0843349 -0.0109879 -0.0797193 0.0921694 -0.00970277 -0.0684745 0.104664 -0.0136913 
-0.0402705 0.0554684 -0.00115547 -0.0260739 0.0842208 -0.00264607 -0.09071 0.084084 -0.00167986 
-0.0809343 0.082468 -0.00741715 -0.0687217 0.0932078 -0.00426191 -0.0684745 0.104664 -0.00407499 
-0.108006 0.060614 0.0056055 -0.000308573 0.0612232 0.00571614 -0.0840406 0.0665215 0.00512762 
-0.104688 0.0703746 0.00582454 -0.0974923 0.0659052 0.000164016 -0.0515654 0.0684221 0.00479777 
-0.00196787 0.0776925 0.00405685 -0.0978317 0.0768159 0.0013709 -0.0768144 0.0915539 0.00270703 
-0.085451 0.0559662 0.0109102 -0.0748805 0.0553534 0.00739479 -0.062306 0.062815 0.0134307 
-0.0448269 0.058699 0.0125576 -0.0227203 0.0602759 0.0148135 -0.0360805 0.0650441 0.0139601 
-0.1447 0.0650177 0.0144914 -0.0760439 0.070932 0.00974421 -0.139974 0.0736567 0.0110703 
-0.0197526 0.0780091 0.0118601 -0.144024 0.0864713 0.0106063 -0.112648 0.0785032 0.00930334 
-0.0710568 0.0818763 0.00808934 -0.110663 0.09204 0.00806141 -0.0750018 0.0908855 0.012475 
-0.079087 0.102045 0.0139143 -0.121555 0.0587557 0.0207195 -0.110613 0.0589857 0.0171239 
-0.0978321 0.0552064 0.0208483 -0.0707409 0.0593036 0.0202655 -0.0998236 0.0647867 0.0157088 
-0.0665908 0.0750036 0.0214442 -0.00831339 0.0636205 0.015493 -0.00647935 0.080502 0.0204378 
-0.137759 0.0995051 0.0175844 -0.143846 0.0556377 0.024856 -0.110962 0.0550214 0.0270352 
-0.086421 0.0609225 0.024297 -0.00997915 0.0603019 0.0300882 -0.0156058 0.0687856 0.0241052 
-0.14417 0.0656107 0.0251091 -0.115818 0.0708307 0.0227248 -0.137495 0.0871743 0.0268044 
-0.102149 0.0623502 0.0364313 -0.0566177 0.0551147 0.0325115 -0.136113 0.0713839 0.0351619 
-0.0528027 0.0636805 0.0282047 -0.0568742 0.0719652 0.0321826 -0.0424969 0.102017 0.0368574 
-0.0660782 0.0724043 0.0377727 -0.042784 0.0631991 0.0430846 -0.0893918 0.0795464 0.0447205 
-0.128779 0.0862188 0.0416691 -0.0482755 0.0554636 0.0468213 -0.124532 0.067732 0.0448621 
-0.0996957 0.0654205 0.0496756 -0.0900158 0.111789 0.0482265 -0.0401407 0.0629397 0.0590509 
-0.115293 0.0591984 0.0544339 -0.069135 0.0865114 0.0553639 -0.0631473 0.0575079 0.0634834 
-0.0978625 0.0642423 0.0660487 -0.106768 0.0807114 0.062131 -0.0952188 0.0737571 0.0659566 
-0.0515694 0.0893957 0.0621647 -0.087573 0.0577249 0.0707343 -0.13002 0.0789122 0.073903 
-0.0624371 0.0629228 0.0723856 -0.139775 0.08252 0.0708147 -0.0517667 0.0856421 0.0733432 
-0.00346931 0.0559386 0.0802059 -0.108964 0.0651264 0.0805164 -0.099524 0.0717075 0.0793441 
-0.0833629 0.0547431 0.0853756 -0.141346 0.0706081 0.0840536 -0.0260893 0.0759879 0.0830809 
-0.120295 0.0830091 0.0836254 -0.0419397 0.0709277 0.0879713 -0.0169162 0.0575728 0.0973861 
-0.111623 0.0581183 0.0919343 -0.0656237 0.0655714 0.0924682 -0.140335 0.0626611 0.104454 
-0.0812027 0.0707434 0.0995577 -0.028672 0.0679863 0.101462 -0.121178 0.0704205 0.100599 
-0.0289499 0.0928841 0.101184 -0.0579011 0.0853717 0.111412 -0.028829 0.0553024 0.112683 
-0.0421908 0.0571284 0.114104 -0.109689 0.078334 0.113554 -0.0595931 0.106729 0.113354 
-0.132075 0.0668223 0.121017 -0.0637452 0.0872229 0.120658 -0.0502817 0.0958651 0.12318 
-0.0486346 0.0694188 0.132756 -0.115966 0.0687476 0.13037 -0.124517 0.0780345 0.130543 
-0.049596 0.0872148 0.139968 -0.0389904 0.0870824 0.137344 -0.0328265 0.0949049 0.134658 
-0.0728061 0.0550955 0.14362 -0.0795456 0.0688623 0.143712 -0.0584586 0.0598016 0.144383 
-0.0493145 0.0775018 0.14363 -0.0638214 0.0768975 0.144498 -0.0344964 0.0999561 0.145284 
0.0290326 0.0559274 -0.143167 0.0417726 0.0599563 -0.144954 0.0265136 0.0662823 -0.143981 
0.138042 0.0711584 -0.144942 0.0466712 0.0847102 -0.144662 0.140861 0.0808455 -0.144686 
0.0228409 0.0873525 -0.144926 0.106006 0.0865289 -0.144842 0.0446061 0.0550195 -0.135395 
0.131852 0.0554221 -0.135526 0.128438 0.0671099 -0.135417 0.0512398 0.0682689 -0.141989 
0.143905 0.0696717 -0.134756 0.0125166 0.0689032 -0.138566 0.01309 0.0793554 -0.139602 
0.0175405 0.0919137 -0.137261 0.132632 0.0898595 -0.141119 0.00801782 0.0939386 -0.139542 
0.0215249 0.10669 -0.13594 0.0352708 0.0581726 -0.129675 0.0339647 0.0694038 -0.13117 
0.0525008 0.0696632 -0.131623 0.00947139 0.0835783 -0.130241 0.0313727 0.078525 -0.128416 
0.0120943 0.0595282 -0.120622 0.0701743 0.0592574 -0.120507 0.0483015 0.0613013 -0.128864 
0.0106944 0.0723179 -0.122028 0.0230648 0.0671235 -0.125763 0.119728 0.0908535 -0.12268 
0.0489269 0.0570563 -0.117584 0.0268163 0.0691376 -0.113154 0.100652 0.0815876 -0.119118 
0.0951138 0.0888022 -0.113175 0.0281276 0.0577666 -0.111843 0.0385346 0.0591491 -0.11078 
0.0528251 0.0561969 -0.106862 0.11822 0.0562983 -0.105191 0.0163351 0.066317 -0.113619 
0.0373324 0.069574 -0.10622 0.0538058 0.0706964 -0.111565 0.0316881 0.0550887 -0.10009 
0.0425819 0.0547541 -0.0975884 0.00130536 0.0667329 -0.0989354 0.090253 0.0977179 -0.097926 
0.0198394 0.0588261 -0.0965821 0.0497335 0.0551592 -0.0900973 0.0607118 0.0556955 -0.0954124 
0.0868038 0.0569876 -0.0970746 0.0553192 0.0650667 -0.0948641 0.0920292 0.0740597 -0.0973472 
0.13628 0.0616241 -0.0936461 0.0501793 0.0728341 -0.0908748 0.0666263 0.0835373 -0.0938224 
0.0113122 0.0553117 -0.0840275 0.0559676 0.0604979 -0.0828986 0.0695132 0.0564145 -0.0878693 
0.0803605 0.0569694 -0.0856834 0.00421385 0.0647256 -0.0850207 0.0917798 0.0758706 -0.0836559 
0.0173539 0.080654 -0.089282 0.0941269 0.0605397 -0.0802714 0.0204187 0.0631906 -0.0803515 
0.107407 0.068198 -0.0807716 0.00218235 0.0586253 -0.0677595 0.0791558 0.0561715 -0.0726322 
0.0511101 0.0613082 -0.0672905 0.063267 0.0689381 -0.073482 0.104071 0.0550538 -0.069855 
0.0379628 0.107964 -0.0698659 0.123814 0.0698983 -0.0588465 0.023559 0.0572809 -0.0580749 
0.0658769 0.0619929 -0.0531947 0.116199 0.0579854 -0.0556882 0.0853605 0.0548809 -0.0564998 
0.028142 0.0662649 -0.0543719 0.0135834 0.0717952 -0.0574847 0.0572083 0.0843083 -0.0544979 
0.0575971 0.0578837 -0.0470605 0.0144088 0.0616944 -0.0460129 0.0566107 0.0695313 -0.0480468 
0.0373842 0.074512 -0.048144 0.0451489 0.0597764 -0.0384343 0.0841556 0.055221 -0.0393559 
0.127293 0.0625649 -0.0396288 0.0166573 0.0825308 -0.0439527 0.0682018 0.07714 -0.0405517 
0.0374616 0.0751079 -0.0321435 0.126629 0.0732343 -0.0376852 0.11976 0.0867913 -0.0333007 
0.132042 0.0851619 -0.0253312 0.0190596 0.101471 -0.0269865 0.144285 0.068746 -0.0172677 
0.132426 0.0762152 -0.0166883 0.144514 0.0810397 -0.0162258 0.0666966 0.0566574 -0.0134361 
0.0555859 0.093453 -0.0143992 0.101017 0.0566504 -0.00556687 0.0979108 0.0670059 -0.00170594 
0.0143217 0.0619771 -0.000856333 0.14452 0.0767636 -0.00473604 0.0536124 0.0555281 0.0061402 
0.0718821 0.0554611 0.00723935 0.0423508 0.0671406 0.00103552 0.0822244 0.060003 0.00123306 
0.10543 0.0718574 0.00625782 0.080069 0.0696334 0.000697523 0.0535328 0.0900241 0.00448637 
0.0532686 0.102223 0.0050329 0.0805386 0.0583606 0.0126573 0.105841 0.0549552 0.0146996 
0.0250334 0.0633321 0.011938 0.102701 0.0638537 0.0115508 0.0593094 0.0734018 0.00990486 
0.0227126 0.0803148 0.00961714 0.0930598 0.0815193 0.010858 0.0661852 0.0600856 0.0174499 
0.0772234 0.0584752 0.0225461 0.143661 0.05904 0.0192562 0.0733537 0.0662372 0.0137143 
0.104575 0.0632051 0.0231852 0.117793 0.0645901 0.017852 0.0878815 0.0573975 0.0285452 
0.113012 0.0564443 0.0263045 0.124957 0.0576261 0.0268085 0.0790893 0.0641378 0.0306876 
0.0917401 0.0743907 0.0230747 0.0792324 0.0767753 0.0262528 0.0254329 0.099436 0.0240338 
0.104443 0.0562677 0.0337199 0.117573 0.0648804 0.0390821 0.13286 0.0808926 0.0347024 
0.111536 0.0945681 0.0364285 0.0912459 0.104444 0.0370223 0.105099 0.0622722 0.0440815 
0.123429 0.0566873 0.0392466 0.138782 0.0569831 0.0375648 0.0315408 0.0666904 0.0388372 
0.0856627 0.070768 0.039178 0.020013 0.0757364 0.0394406 0.115432 0.0784629 0.0385862 
0.0197476 0.0859615 0.0396801 0.13247 0.0900446 0.0419804 0.09072 0.0939975 0.0377163 
0.0910195 0.0735164 0.0507041 0.115698 0.0703598 0.0477984 0.00133618 0.0574222 0.0530805 
0.0254879 0.0619214 0.0533824 0.133559 0.0606349 0.0559684 0.0350938 0.066709 0.0511456 
0.0265513 0.0742418 0.0557924 0.0927841 0.0959451 0.0591606 0.0852251 0.105575 0.0569815 
0.0425818 0.0634406 0.0665432 0.000582045 0.0585728 0.0640022 0.0434743 0.0726079 0.0627191 
0.0997917 0.0772619 0.0673861 0.0145783 0.0590101 0.0718531 0.0691883 0.0639 0.0762955 
0.135106 0.0692988 0.0713347 0.108324 0.0834294 0.0738086 0.0247021 0.0638244 0.0803712 
0.0554463 0.0642194 0.0779512 0.00604565 0.0702536 0.0787606 0.0858418 0.0571725 0.0895503 
0.1206 0.0617922 0.0864727 0.00833946 0.0607554 0.0818995 0.0122957 0.0572608 0.0965098 
0.0205268 0.0760403 0.0934686 0.0310794 0.0744433 0.0899326 0.0395037 0.0853111 0.0924032 
0.0561334 0.0996833 0.092473 0.123469 0.101746 0.0957058 0.0698731 0.0573754 0.104092 
0.0358423 0.0610264 0.104105 0.0493766 0.0608588 0.0988634 0.0201872 0.0883655 0.101509 
0.143317 0.0608167 0.109776 0.128207 0.0650053 0.106612 0.1236 0.0907299 0.105758 
0.0623948 0.0574745 0.115444 0.0767762 0.0694194 0.117913 0.0435251 0.0802759 0.116811 
0.0555698 0.0687389 0.115392 0.0201674 0.0892801 0.113171 0.0142567 0.0743956 0.12273 
0.138185 0.0614669 0.126878 0.0520915 0.071352 0.127932 0.0851968 0.0717504 0.128509 
0.127576 0.0763263 0.129401 0.0587669 0.0808495 0.134653 0.0903365 0.081012 0.13101 
0.143713 0.0561513 0.137602 0.0431355 0.0636484 0.136608 0.00474495 0.0898798 0.139875 
0.0806615 0.0807804 0.139697 0.129257 0.0621067 0.144998 0.0143282 0.0804545 0.144347 
0.11467 0.08463 0.143301 
VERTICES 401 400
OFFSETS vtktypeint64
0 1 2 3 4 5 6 7 8 
9 10 11 12 13 14 15 16 17 
18 19 20 21 22 23 24 25 26 
27 28 29 30 31 32 33 34 35 
36 37 38 39 40 41 42 43 44 
45 46 47 48 49 50 51 52 53 
54 55 56 57 58 59 60 61 62 
63 64 65 66 67 68 69 70 71 
72 73 74 75 76 77 78 79 80 
81 82 83 84 85 86 87 88 89 
90 91 92 93 94 95 96 97 98 
99 100 101 102 103 104 105 106 107 
108 109 110 111 112 113 114 115 116 
117 118 119 120 121 122 123 124 125 
126 127 128 129 130 131 132 133 134 
135 136 137 138 139 140 141 142 143 
144 145 146 147 148 149 150 151 152 
153 154 155 156 157 158 159 160 161 
162 163 164 165 166 167 168 169 170 
171 172 173 174 175 176 177 178 179 
180 181 182 183 184 185 186 187 188 
189 190 191 192 193 194 195 196 197 
198 199 200 201 202 203 204 205 206 
207 208 209 210 211 212 213 214 215 
216 217 218 219 220 221 222 223 224 
225 226 227 228 229 230 231 232 233 
234 235 236 237 238 239 240 241 242 
243 244 245 246 247 248 249 250 251 
252 253 254 255 256 257 258 259 260 
261 262 263 264 265 266 267 268 269 
270 271 272 273 274 275 276 277 278 
279 280 281 282 283 284 285 286 287 
288 289 290 291 292 293 294 295 296 
297 298 299 300 301 302 303 304 305 
306 307 308 309 310 311 312 313 314 
315 316 317 318 319 320 321 322 323 
324 325 326 327 328 329 330 331 332 
333 334 335 336 337 338 339 340 341 
342 343 344 345 346 347 348 349 350 
351 352 353 354 355 356 357 358 359 
360 361 362 363 364 365 366 367 368 
369 370 371 372 373 374 375 376 377 
378 379 380 381 382 383 384 385 386 
387 388 389 390 391 392 393 394 395 
396 397 398 399 400 
CONNECTIVITY vtktypeint64
0 1 2 3 4 5 6 7 8 
9 10 11 12 13 14 15 16 17 
18 19 20 21 22 23 24 25 26 
27 28 29 30 31 32 33 34 35 
36 37 38 39 40 41 42 43 44 
45 46 47 48 49 50 51 52 53 
54 55 56 57 58 59 60 61 62 
63 64 65 66 67 68 69 70 71 
72 73 74 75 76 77 78 79 80 
81 82 83 84 85 86 87 88 89 
90 91 92 93 94 95 96 97 98 
99 100 101 102 103 104 105 106 107 
108 109 110 111 112 113 114 115 116 
117 118 119 120 121 122 123 124 125 
126 127 128 129 130 131 132 133 134 
135 136 137 138 139 140 141 142 143 
144 145 146 147 148 149 150 151 152 
153 154 155 156 157 158 159 160 161 
162 163 164 165 166 167 168 169 170 
171 172 173 174 175 176 177 178 179 
180 181 182 183 184 185 186 187 188 
189 190 191 192 193 194 195 196 197 
198 199 200 201 202 203 204 205 206 
207 208 209 210 211 212 213 214 215 
216 217 218 219 220 221 222 223 224 
225 226 227 228 229 230 231 232 233 
234 235 236 237 238 239 240 241 242 
243 244 245 246 247 248 249 250 251 
252 253 254 255 256 257 258 259 260 
261 262 263 264 265 266 267 268 269 
270 271 272 273 274 275 276 277 278 
279 280 281 282 283 284 285 286 287 
288 289 290 291 292 293 294 295 296 
297 298 299 300 301 302 303 304 305 
306 307 308 309 310 311 312 313 314 
315 316 317 318 319 320 321 322 323 
324 325 326 327 328 329 330 331 332 
333 334 335 336 337 338 339 340 341 
342 343 344 345 346 347 348 349 350 
351 352 353 354 355 356 357 358 359 
360 361 362 363 364 365 366 367 368 
369 370 371 372 373 374 375 376 377 
378 379 380 381 382 383 384 385 386 
387 388 389 390 391 392 393 394 395 
396 397 398 399 
POINT_DATA 400
FIELD FieldData 8
id 1 400 int
2648 3801 2755 3744 3023 3884 3937 3970 3959 
3994 3781 3745 3726 3773 3823 3917 3987 2739 
3586 2901 3785 3907 3903 3844 3931 3873 3960 
3024 3757 3296 3981 3685 3814 3180 3830 3852 
3894 3403 3242 3025 3297 3727 3766 3734 3793 
2823 3802 2961 3824 3359 3686 3976 3858 3740 
2756 3774 3716 3711 3877 3026 3949 3243 3767 
2824 3404 3932 3786 3853 3758 3687 3181 2825 
2962 3908 3405 3759 3878 3809 3835 3360 3135 
3919 3918 3895 3787 3815 3808 3133 3961 3996 
3845 3134 3939 3938 3975 3995 2902 3263 3720 
3182 3885 3846 3519 3909 3971 3631 3746 3747 
3782 2963 3810 3688 3775 3896 3244 3925 3920 
3940 3950 3962 3988 3825 3803 3768 3788 3831 
3816 3879 3926 3982 3836 3760 3794 3298 3587 
3863 3854 3955 3783 3461 3721 3406 3910 3989 
3735 3847 2826 3941 3136 3728 3769 3027 3795 
3859 3951 3761 3864 3299 3911 2757 3754 3407 
3874 3245 2964 3765 3776 3904 3837 3736 3588 
3183 3898 3817 3865 3880 3804 3748 2509 3886 
2649 3963 3855 3866 3933 3997 3887 3956 3984 
3690 3897 3921 3722 3954 3983 3689 3729 3848 
3632 3875 3977 3818 3161 3849 3876 3838 3905 
3952 3942 2927 3717 3741 3811 3867 3899 3927 
3964 3934 3972 3978 3762 3789 3900 3943 3922 
3730 3440 3860 3749 3888 3965 3665 3796 3944 
3957 3770 2867 2748 3839 3208 3889 2989 3737 
3856 3691 3985 3819 2591 3755 3812 3784 3712 
3868 3881 3945 2481 3162 3777 3826 3731 3666 
3840 3441 3805 3869 2749 3832 3385 3262 3386 
3999 3850 3763 3813 3827 3841 3891 3915 3518 
3778 2482 3797 3929 3613 3842 2483 2750 3928 
3713 2751 3923 3946 3990 3890 3914 3913 3806 
3973 3324 3614 3882 3912 3714 3779 3738 3870 
3851 3901 3966 3991 3764 3692 2790 3820 3790 
3084 3771 3750 3667 3442 3723 3732 3828 3718 
2690 3791 3861 3742 3892 3986 3833 2928 3947 
3979 3998 3807 3751 3715 3756 3739 3924 3930 
3953 3958 3974 3916 3902 3834 3719 3780 3668 
3906 3980 4000 3798 3862 3821 3520 3325 2868 
3752 3209 3743 2484 3871 3829 3799 3843 3792 
3857 3443 2752 3993 3992 3822 2550 3872 3969 
3326 3772 3968 3800 3753 3521 3883 3967 3694 
3733 2753 3725 3724 3935 3936 3444 3893 2754 
3948 3693 2990 3163 
type 1 400 int
2 2 2 2 2 2 2 2 2 
2 2 2 2 2 2 2 2 2 
2 2 2 2 2 2 2 2 2 
2 2 2 2 2 2 2 2 2 
2 2 2 2 2 2 2 2 2 
2 2 2 2 2 2 2 2 2 
2 2 2 2 2 2 2 2 2 
2 2 2 2 2 2 2 2 2 
2 2 2 2 2 2 2 2 2 
2 2 2 2 2 2 2 2 2 
2 2 2 2 2 2 2 2 2 
2 2 2 2 2 2 2 2 2 
2 2 2 2 2 2 2 2 2 
2 2 2 2 2 2 2 2 2 
2 2 2 2 2 2 2 2 2 
2 2 2 2 2 2 2 2 2 
2 2 2 2 2 2 2 2 2 
2 2 2 2 2 2 2 2 2 
2 2 2 2 2 2 2 2 2 
2 2 2 2 2 2 2 2 2 
2 2 2 2 2 2 2 2 2 
2 2 2 2 2 2 2 2 2 
2 2 2 2 2 2 2 2 2 
2 2 2 2 2 2 2 2 2 
2 2 2 2 2 2 2 2 2 
2 2 2 2 2 2 2 2 2 
2 2 2 2 2 2 2 2 2 
2 2 2 2 2 2 2 2 2 
2 2 2 2 2 2 2 2 2 
2 2 2 2 2 2 2 2 2 
2 2 2 2 2 2 2 2 2 
2 2 2 2 2 2 2 2 2 
2 2 2 2 2 2 2 2 2 
2 2 2 2 2 2 2 2 2 
2 2 2 2 2 2 2 2 2 
2 2 2 2 2 2 2 2 2 
2 2 2 2 2 2 2 2 2 
2 2 2 2 2 2 2 2 2 
2 2 2 2 2 2 2 2 2 
2 2 2 2 2 2 2 2 2 
2 2 2 2 2 2 2 2 2 
2 2 2 2 2 2 2 2 2 
2 2 2 2 2 2 2 2 2 
2 2 2 2 2 2 2 2 2 
2 2 2 2 
i 3 400 int
0 0 0 0 0 0 0 0 0 
0 0 0 0 0 0 0 0 0 
0 0 0 0 0 0 0 0 0 
0 0 0 0 0 0 0 0 0 
0 0 0 0 0 0 0 0 0 
0 0 0 0 0 0 0 0 0 
0 0 0 0 0 0 0 0 0 
0 0 0 0 0 0 0 0 0 
0 0 0 0 0 0 0 0 0 
0 0 0 0 0 0 0 0 0 
0 0 0 0 0 0 0 0 0 
0 0 0 0 0 0 0 0 0 
0 0 0 0 0 0 0 0 0 
0 0 0 0 0 0 0 0 0 
0 0 0 0 0 0 0 0 0 
0 0 0 0 0 0 0 0 0 
0 0 0 0 0 0 0 0 0 
0 0 0 0 0 0 0 0 0 
0 0 0 0 0 0 0 0 0 
0 0 0 0 0 0 0 0 0 
0 0 0 0 0 0 0 0 0 
0 0 0 0 0 0 0 0 0 
0 0 0 0 0 0 0 0 0 
0 0 0 0 0 0 0 0 0 
0 0 0 0 0 0 0 0 0 
0 0 0 0 0 0 0 0 0 
0 0 0 0 0 0 0 0 0 
0 0 0 0 0 0 0 0 0 
0 0 0 0 0 0 0 0 0 
0 0 0 0 0 0 0 0 0 
0 0 0 0 0 0 0 0 0 
0 0 0 0 0 0 0 0 0 
0 0 0 0 0 0 0 0 0 
0 0 0 0 0 0 0 0 0 
0 0 0 0 0 0 0 0 0 
0 0 0 0 0 0 0 0 0 
0 0 0 0 0 0 0 0 0 
0 0 0 0 0 0 0 0 0 
0 0 0 0 0 0 0 0 0 
0 0 0 0 0 0 0 0 0 
0 0 0 0 0 0 0 0 0 
0 0 0 0 0 0 0 0 0 
0 0 0 0 0 0 0 0 0 
0 0 0 0 0 0 0 0 0 
0 0 0 0 0 0 0 0 0 
0 0 0 0 0 0 0 0 0 
0 0 0 0 0 0 0 0 0 
0 0 0 0 0 0 0 0 0 
0 0 0 0 0 0 0 0 0 
0 0 0 0 0 0 0 0 0 
0 0 0 0 0 0 0 0 0 
0 0 0 0 0 0 0 0 0 
0 0 0 0 0 0 0 0 0 
0 0 0 0 0 0 0 0 0 
0 0 0 0 0 0 0 0 0 
0 0 0 0 0 0 0 0 0 
0 0 0 0 0 0 0 0 0 
0 0 0 0 0 0 0 0 0 
0 0 0 0 0 0 0 0 0 
0 0 0 0 0 0 0 0 0 
0 0 0 0 0 0 0 0 0 
0 0 0 0 0 0 0 0 0 
0 0 0 0 0 0 0 0 0 
0 0 0 0 0 0 0 0 0 
0 0 0 0 0 0 0 0 0 
0 0 0 0 0 0 0 0 0 
0 0 0 0 0 0 0 0 0 
0 0 0 0 0 0 0 0 0 
0 0 0 0 0 0 0 0 0 
0 0 0 0 0 0 0 0 0 
0 0 0 0 0 0 0 0 0 
0 0 0 0 0 0 0 0 0 
0 0 0 0 0 0 0 0 0 
0 0 0 0 0 0 0 0 0 
0 0 0 0 0 0 0 0 0 
0 0 0 0 0 0 0 0 0 
0 0 0 0 0 0 0 0 0 
0 0 0 0 0 0 0 0 0 
0 0 0 0 0 0 0 0 0 
0 0 0 0 0 0 0 0 0 
0 0 0 0 0 0 0 0 0 
0 0 0 0 0 0 0 0 0 
0 0 0 0 0 0 0 0 0 
0 0 0 0 0 0 0 0 0 
0 0 0 0 0 0 0 0 0 
0 0 0 0 0 0 0 0 0 
0 0 0 0 0 0 0 0 0 
0 0 0 0 0 0 0 0 0 
0 0 0 0 0 0 0 0 0 
0 0 0 0 0 0 0 0 0 
0 0 0 0 0 0 0 0 0 
0 0 0 0 0 0 0 0 0 
0 0 0 0 0 0 0 0 0 
0 0 0 0 0 0 0 0 0 
0 0 0 0 0 0 0 0 0 
0 0 0 0 0 0 0 0 0 
0 0 0 0 0 0 0 0 0 
0 0 0 0 0 0 0 0 0 
0 0 0 0 0 0 0 0 0 
0 0 0 0 0 0 0 0 0 
0 0 0 0 0 0 0 0 0 
0 0 0 0 0 0 0 0 0 
0 0 0 0 0 0 0 0 0 
0 0 0 0 0 0 0 0 0 
0 0 0 0 0 0 0 0 0 
0 0 0 0 0 0 0 0 0 
0 0 0 0 0 0 0 0 0 
0 0 0 0 0 0 0 0 0 
0 0 0 0 0 0 0 0 0 
0 0 0 0 0 0 0 0 0 
0 0 0 0 0 0 0 0 0 
0 0 0 0 0 0 0 0 0 
0 0 0 0 0 0 0 0 0 
0 0 0 0 0 0 0 0 0 
0 0 0 0 0 0 0 0 0 
0 0 0 0 0 0 0 0 0 
0 0 0 0 0 0 0 0 0 
0 0 0 0 0 0 0 0 0 
0 0 0 0 0 0 0 0 0 
0 0 0 0 0 0 0 0 0 
0 0 0 0 0 0 0 0 0 
0 0 0 0 0 0 0 0 0 
0 0 0 0 0 0 0 0 0 
0 0 0 0 0 0 0 0 0 
0 0 0 0 0 0 0 0 0 
0 0 0 0 0 0 0 0 0 
0 0 0 0 0 0 0 0 0 
0 0 0 0 0 0 0 0 0 
0 0 0 0 0 0 0 0 0 
0 0 0 0 0 0 0 0 0 
0 0 0 0 0 0 0 0 0 
0 0 0 0 0 0 0 0 0 
0 0 0 0 0 0 0 0 0 
0 0 0 
v 3 400 double
-0.034028346872 0.042358511706 -0.012530444206 -0.056360195505 0.12493762577 -0.08822207875 -0.0021441907264 0.059400121159 0.046438722938 
-0.13684008619 -0.45682123738 0.025602696357 0.030673943449 0.18830694014 -0.099098685348 -0.01085233179 -0.82897663213 0.039972707858 
-0.0054708482851 -1.0271889 -0.0054188392603 0 -0.94319110366 0.039814523199 -0.0031796623937 -0.96848353033 0.010498871909 
0.0068803717952 -0.7982875939 0.040291511175 -0.18986325671 0.028653340121 -0.15392369244 -0.068449276743 0.037413981791 -0.11458774958 
0.19356172805 -0.56744475432 -0.039528315161 0 0.4000234633 0 0.23079818756 -0.03165334086 -0.1030368356 
-0.013734895208 -0.48692684303 0.10265739592 -0.0083415219662 -0.98471296677 0.12867894074 -0.085517593457 -0.31590415748 -0.037890349452 
-0.22463309809 -0.50664149946 0.009785169402 0.16312193721 -0.60675725715 0.091037967653 -0.10340168981 0.0058395245749 -0.19074242778 
0 -1.0278696845 0 -0.20559544981 -0.79570624315 0.14052598945 0.31208578683 -0.4367738468 0.27824734041 
-0.0098478174318 -0.60355487926 -0.03001525924 0.11885496493 -0.63082083699 0.21183462095 -0.0017459094468 -1.0111189021 -0.0080386425114 
0.047023660214 -0.22867315001 0.053449969818 0.0340779321 0.0002319135752 0.0029551833854 -0.088636660771 -0.31833480745 -0.13020303784 
0.00017700445032 -1.0107416072 -0.012519541024 0.044403781778 0.014978611389 0.099814755919 0.31223624079 -0.33803605457 0.24039670806 
-0.005644904192 0.11634111591 0.004857108426 -0.02928727251 -0.44843732248 0.18855593476 0.059066017758 -0.21799998636 0.10430757491 
-0.0009813913274 -0.33864815927 -0.44173462769 -0.0096575554909 0.27005267014 0.0080604148417 0.073421974865 0.032193320907 0.26764079307 
0.16767199102 -0.14276119868 -0.0072384948928 0.028135713549 -0.096028905037 0.39390411585 -0.014901053929 -0.088385435829 0.28332991228 
-0.0031086876156 0.096402335221 -0.003305377453 0 0.39896583638 0 0.087677839082 0.25213227295 0.15366330954 
0.048239276178 0.099225294711 0.24497616456 -0.040956546694 0.26237529859 -0.077021290032 0.0076670219817 0.05863614927 0.27053373128 
0 0.4099646538 0 -0.097613623005 0.14261836488 -0.069878233524 0.14905294577 0.19639092514 0.014893614453 
-0.00029414138551 -1.0100510944 0.0058730871698 0.21664196646 -0.54186668609 -0.31795590965 -0.013439671783 0.51232874696 -0.080587636658 
0 0.39895779965 -0.0048950405667 0.1287683514 0.19121853907 0.11076579337 -0.0040698707369 0.28466486532 -0.023757018061 
-0.23522534549 0.015511879386 -0.20546539832 0.23522534549 -0.62162079804 0.21048934041 -1.4485258125e-05 0.39873630553 -3.634419112e-05 
0 -1 0 0.0073616794846 0.22860097262 0.0056379145434 -0.004507024569 0.40045571211 -0.019038581245 
-0.21192915926 -0.071779856971 0.31197155673 0.013750131286 0.41310435568 -0.010249234026 -0.0016698730382 -0.99767684974 0.0041568365541 
0.16516498594 -0.03766484776 0.11888971262 0.16177005642 -0.07644656374 -0.00059768219633 0.40068072595 -0.21000497752 0.007023702728 
0 0.39374558319 -0.0047274651976 -0.0006249839803 0.39654364795 -0.0035443033661 0 0.41049660782 0 
0.21076709933 -0.53446244618 0.16273303228 -0.21558529215 -0.019513045433 -0.17941226195 0.034626084256 0.24483133848 0.0064815182093 
0 0.40508628054 1.1391752074e-05 0 -1 0 0.10261538139 0.024450565892 0.019208162786 
0 0.39898908396 -8.3565179191e-06 0.3176497045 -0.33473143174 -0.30716175072 -0.1487391782 -0.64982652102 -0.04367077107 
0.076735576016 -0.23046901524 0.058526883142 0.10630623854 -0.73470118251 0.10748533591 0 -0.9721303155 0 
-0.062514802002 0.021990781254 -0.11975482435 -0.26618017517 -0.56735765787 0.21232770592 -0.13951011532 0.06517407504 -0.20749751531 
-0.0030995011966 0.4005287818 -0.0015598553611 0.0050184951068 -0.98608817937 0.010670165464 0 -0.9721303155 2.6243361572e-14 
0.055655422775 -0.9721303155 -2.3470112193e-14 0.0017389604782 0.39882328398 -0.0017389604782 0.014382583285 -0.90539479268 -0.032291870028 
0.0090537897323 -1.0050710616 -0.11989829479 0.0003178502612 -1.0164391779 0.0014461503232 0 -0.9721303155 -2.6243361572e-14 
-0.081500995447 0.00078626445122 -0.12758225016 -0.0053444608278 0.09390465394 -0.0053444608277 0.090991702907 0.041920777393 -0.17142383997 
0.15176007765 -0.62758578822 -0.064065460921 0.063907773114 -0.98336986983 -0.056944692332 0.10739636165 -0.23419772336 0.34157045848 
-0.026301618679 0.19420349068 -0.026301618679 -0.019446519328 -0.99131947114 0.0090339736027 -0.01317286668 -1.0069206427 -0.011830734102 
-0.036369366484 0.017974500659 -0.068187313974 0.0044511679252 0.036660888111 -0.10485127224 -0.014149918022 0.29092622257 -0.128939732 
-0.31628828636 -0.053609200436 -0.051179570642 0.050307472457 -0.061266872548 -0.00070941091907 0.21650160605 -0.16724870387 0.03514236238 
0.066985581998 -0.54400415985 -0.0061157736918 -0.027995564052 0.18752739779 -0.027999057923 0.22170986575 -0.6768979483 -0.09137128863 
-0.011140416409 0.097767829241 -0.12921837017 -0.045200578316 -0.32271749246 -0.075866697798 -0.19730406906 -0.75627470857 0.086018577836 
0.1000715265 -1.0607543145 0.057200655507 -0.040562073389 -0.35263073234 0.0035808446457 -0.0056457773081 -0.9460595271 0.06213092506 
0 -0.9721303155 8.088568831e-19 -0.41684507121 -0.29699244182 -0.13645229258 -0.19999115928 -0.17940084395 -0.11160104862 
0.053117674407 -0.26094235742 0.14853294031 0.035195391938 0.24837499408 -0.0076218529617 0.014537756272 -0.11322151881 -0.12952640365 
0.14839527413 0.58811835358 0.043079860813 0.10575096887 -0.94848065934 0.011524954594 0.0069674211245 -0.97909773663 0.0069674211245 
0 -0.9721303155 0 -0.010772040184 0.38367183457 4.8871996299e-05 -0.055878085168 0.018552676409 0.077319089015 
-0.0021049833578 0.38899466784 -0.000126565171 0.049596459578 0.02619226542 0.061006345325 0.0090874434629 0.066557485852 0.0035811527627 
0.017317292127 -0.82403617681 0.14879455451 -0.041144990168 -0.29450778737 -0.032836461159 0 -1.0278696845 -5.7046249395e-14 
-0.0020887119363 0.38986351732 -0.0070491576428 -0.047742708377 0.013295994563 -0.084511811982 0.0011427222985 0.38876322421 0.00064935020248 
0.013423188572 -0.038521245274 -0.28338032835 0 -1.0278696845 0 -0.0022357930233 -0.9708917541 -0.002153005058 
0 0.41007381017 0 0.30914526625 -0.076061414229 0.017928294381 -0.0016610994383 0.29654940525 0.0087496036546 
0 -0.9721303155 0.013934842249 -0.00044574958215 0.029243049089 0.10201140501 -0.1251915036 0.21141275849 -0.12909309659 
0.0020429030869 0.39521847008 -0.0010600737839 -0.0067172086632 0.56567410001 0.037516284279 0 0.41052549956 0 
0.1239910407 -0.82465017448 0.12843414593 0 -0.9721303155 8.088568831e-19 -0.083332645674 0.2096788358 0.2024937528 
-0.29272680265 -0.78587082448 -0.13887594834 0 0.39882697079 0 -0.021891490625 -0.6635872586 -0.065711764816 
0 0.39925497113 0 0.21471773544 -0.47990403261 -0.061537619478 0.0023122065005 0.39628274053 0.0023597342796 
0 -1 0 0.00056348824668 0.40152978625 0.00027402949384 0 0.39875819248 -0.0097057056303 
-0.076416026534 0.17725342488 -0.024615689046 -0.0017479111205 0.39886792968 0.0017479111205 -0.0052880434447 -1.006468957 0.0084409283367 
0.11362245961 0.061973090105 0.27252067613 0 0.39872827304 0 0 0.38755395842 -0.0050852537353 
-8.0938774001e-06 0.39894161244 0 -0.0008064506435 -0.99196076729 0.011645257734 0 0.38761842277 0 
1.3774428291e-14 -1.0069674211 0.020902263374 0.0069852072671 -0.97518146925 -0.0026621151977 0 0.41016565709 9.1963837408e-06 
0.0002436659938 0.41148920957 0.0063921664547 -0.0033082998542 0.13377592098 -0.0033247496929 -0.0034475634525 -0.97061866319 0.015296391299 
-0.0046666478446 0.28784143851 -0.0046798590522 0 -1.0139348422 0.013934842249 -0.002634341908 0.41110012695 0.0010203462189 
-0.0067776025484 -1.0107819949 -0.011329690883 0 -1 -8.088568831e-19 0.0014610539288 -0.96504033019 -0.0073217767032 
-0.0027311931712 -0.99953231016 -0.0033772704618 0.00043407114166 -1.0152295393 -0.01351538144 0.0017521974428 -1.0007942276 0.004261372227 
0.003430585782 0.26858144658 0.036345321829 0.033507479586 -1.0363898676 -0.00067931275374 -0.041870913108 -0.95452725751 0.00084886846854 
-0.23465860515 0.31091122182 0.049620763329 0.099347670376 -0.83234251585 -0.005790205922 0.36977578319 -0.64772503422 -0.25858240166 
-0.043764776739 -0.20513115922 -0.010421410614 -0.30057167303 -0.0057001018753 -0.016076409613 0.28531218193 -0.76554410377 -0.012426308605 
-0.1249687297 0.1134637879 0.12381315576 0.076243950606 -0.45975376378 -0.018207151997 0.0051169717876 -0.81210114416 -0.039814504503 
-0.014331376917 0.095900659013 -0.0047142258415 -0.050806823185 -0.065202355239 0.026795663614 -0.13097155992 0.17054089955 -0.041681004829 
0.02357125686 -0.78982293233 0.017400398187 0.0088930515052 -0.17001667165 0.028720490396 0.050161836372 -0.78610509637 0.0017946338943 
0.073139111507 -0.92767806636 0.032454749708 -0.007583588806 -0.91753982802 0.033764453348 -0.17889620341 -0.38308468329 -0.23934376493 
0.0015553803189 0.13485196632 -0.0011737400728 -0.24858613197 -0.062233116697 0.028813046543 0.12102399357 -0.32220045698 -0.0013235277117 