# vtk DataFile Version 5.1
Generated by LIGGGHTS
ASCII
DATASET POLYDATA
POINTS 1380 float
-0.13451 0.0554517 -0.143264 -0.137416 0.0694018 -0.142616 -0.140457 0.150793 -0.143808 
-0.143464 0.0611797 -0.141668 -0.0275825 0.083894 -0.135648 -0.127725 0.0966406 -0.141785 
-0.0266315 0.124843 -0.1383 -0.106456 0.157315 -0.139905 -0.0700759 0.158799 -0.139614 
-0.00304661 0.170682 -0.142088 -0.131047 0.0564772 -0.128054 -0.120354 0.0606251 -0.133326 
-0.0849036 0.063048 -0.130086 -0.130414 0.0814575 -0.133678 -0.0142396 0.0857761 -0.132904 
-0.106752 0.104895 -0.132254 -0.144903 0.172733 -0.134497 -0.12118 0.0583325 -0.121565 
-0.00348305 0.0654613 -0.125748 -0.0363725 0.0844868 -0.126277 -0.0309557 0.108916 -0.122467 
-0.0230049 0.157355 -0.122956 -0.129512 0.0643812 -0.119638 -0.0838041 0.0717617 -0.114654 
-0.134491 0.0802693 -0.11796 -0.0418699 0.0912309 -0.113492 -0.144444 0.0927461 -0.112521 
-0.0510895 0.139086 -0.11938 -0.071307 0.151679 -0.1153 -0.0881926 0.157269 -0.115511 
-0.0605802 0.178267 -0.114218 -0.144211 0.0606236 -0.108584 -0.0553483 0.0941626 -0.111061 
-0.132242 0.104928 -0.11154 -0.0333751 0.103782 -0.111938 -0.10504 0.0646064 -0.10245 
-0.0312372 0.0638927 -0.0939316 -0.137644 0.0737469 -0.0932404 -0.0326348 0.120102 -0.089765 
-0.142866 0.0642008 -0.0849552 -0.0607 0.0900073 -0.0846951 -0.102191 0.100453 -0.0847441 
-0.0283308 0.15329 -0.087638 -0.0363055 0.0616134 -0.0757708 -0.0175472 0.0605691 -0.077732 
-0.106448 0.071721 -0.0761563 -0.0756862 0.188333 -0.0770427 -0.127744 0.129353 -0.0747798 
-0.0986653 0.134093 -0.0678754 -0.081939 0.0654902 -0.060011 -0.00268395 0.0854871 -0.0565724 
-0.0426428 0.110619 -0.0591689 -0.0322792 0.15275 -0.0570566 -0.130367 0.114608 -0.0473044 
-0.0680404 0.0633383 -0.041293 -0.0377801 0.0725034 -0.043086 -0.0118806 0.0837854 -0.0371341 
-0.0317295 0.154074 -0.0414906 -0.125306 0.0816928 -0.032575 -0.0392892 0.167511 -0.0362334 
-0.0581452 0.0860021 -0.0250558 -0.138651 0.0560247 -0.0158589 -0.127409 0.0582514 -0.0161745 
-0.100831 0.0629772 -0.019835 -0.00420568 0.0909361 -0.0187135 -0.0163687 0.108016 -0.0214423 
-0.130839 0.174315 -0.0209108 -0.0341698 0.0679368 -0.0133461 -0.104213 0.0894579 -0.0136169 
-0.137074 0.0688506 -0.00539981 -0.0921848 0.0630807 -0.00658216 -0.1314 0.0904112 -0.00543884 
-0.0592687 0.171694 -0.00574984 -0.0176839 0.0563105 0.00679726 -0.140828 0.0652015 0.00639869 
-0.0328593 0.0749285 0.00453005 -0.0120087 0.0810853 0.000391086 -0.130416 0.0915887 0.00594431 
-0.043811 0.109164 0.00245635 -0.0323134 0.0559755 0.00897924 -0.0132792 0.0726455 0.0109676 
-0.00712671 0.0874677 0.0124931 -0.0680503 0.116081 0.0105665 -0.144131 0.0755137 0.0196387 
-0.115991 0.0699604 0.0194515 -0.123699 0.0811131 0.0185083 -0.109434 0.0565133 0.0274665 
-0.131826 0.0706182 0.0284544 -0.131493 0.101291 0.0268245 -0.0137369 0.101669 0.0252298 
-0.120976 0.0907512 0.0367366 -0.10356 0.0988757 0.0329298 -0.106839 0.179057 0.0316706 
-0.142763 0.0841903 0.0453933 -0.0473923 0.0806978 0.0507373 -0.0144691 0.0829996 0.0484315 
-0.00632771 0.0874262 0.0526288 -0.0952576 0.0942966 0.0508895 -0.0105952 0.140676 0.0512324 
-0.0575758 0.0559034 0.0580682 -0.0774568 0.0784563 0.0539258 -0.118565 0.119465 0.0540815 
-0.139289 0.159599 0.0528305 -0.0262873 0.062386 0.0634594 -0.00191991 0.0875643 0.0654632 
-0.0623096 0.192424 0.0612518 -0.136997 0.150482 0.0705319 -0.0746226 0.14988 0.0692618 
-0.100829 0.157946 0.0733747 -0.144117 0.0604918 0.0780474 -0.122686 0.0801461 0.0768109 
-0.0790033 0.0741919 0.142819 -0.082543 0.200109 0.07863 -0.00516672 0.101684 0.138469 
-0.0781253 0.200215 0.0784807 -0.0203665 0.0671282 0.0891897 -0.0885416 0.094942 0.0834415 
-0.102862 0.158556 0.0873221 -0.025056 0.133394 0.0949199 -0.0800196 0.0597424 0.0983903 
-0.107328 0.0699243 0.102512 -0.04797 0.0724188 0.0992061 -0.140231 0.0797221 0.0990625 
-0.0312194 0.170994 0.0989019 -0.117159 0.0781631 0.112445 -0.105429 0.102856 0.11788 
-0.0486187 0.0779808 0.12537 -0.113283 0.189999 0.122011 -0.119701 0.11527 0.133426 
-0.129403 0.11876 0.132134 -0.111379 0.128532 0.134074 -0.133746 0.0622581 0.141938 
-0.0783595 0.21808 -0.142743 -0.0935449 0.230248 -0.146011 -0.07716 0.232289 -0.146656 
-0.0571363 0.247883 -0.14709 -0.0387434 0.247926 -0.14709 -0.094507 0.289936 -0.14726 
-0.0782788 0.288696 -0.146127 -0.140203 0.316415 -0.144435 -0.114468 0.316415 -0.144435 
-0.0571876 0.313525 -0.146784 -0.0387297 0.313532 -0.146783 -0.139292 0.392539 -0.143524 
-0.128305 0.392126 -0.145673 -0.11538 0.392539 -0.143524 -0.0970134 0.392092 -0.146055 
-0.0906683 0.21919 -0.141686 -0.0938548 0.273478 -0.140813 -0.079642 0.272041 -0.139676 
-0.126267 0.360007 -0.138502 -0.0658104 0.243584 -0.133234 -0.0467153 0.241839 -0.130933 
-0.0572527 0.249181 -0.129893 -0.0385874 0.249192 -0.129895 -0.0641498 0.311621 -0.131602 
-0.057274 0.315463 -0.130663 -0.0386088 0.315474 -0.130665 -0.0450547 0.309876 -0.1293 
-0.100627 0.337873 -0.122062 -0.0681334 0.241881 -0.114139 -0.0986314 0.253187 -0.117713 
-0.0760891 0.25332 -0.117713 -0.140203 0.316415 -0.1187 -0.114468 0.316415 -0.1187 
-0.051857 0.325536 -0.117255 -0.0235279 0.325536 -0.117255 -0.0988237 0.330051 -0.11754 
-0.0762812 0.330184 -0.11754 -0.127782 0.389494 -0.117089 -0.0971553 0.38951 -0.117022 
-0.0494883 0.384666 -0.114886 -0.0258966 0.384666 -0.114886 -0.139292 0.392539 -0.119611 
-0.0490383 0.240136 -0.111838 -0.0615164 0.303585 -0.112153 -0.0473777 0.308172 -0.110205 
-0.0453161 0.35893 -0.107933 -0.127368 0.255984 -0.100242 -0.114868 0.260085 -0.1019 
-0.0811012 0.30508 -0.0990106 -0.0619187 0.311413 -0.0993483 -0.102149 0.330689 -0.102042 
-0.0708441 0.329558 -0.101975 -0.0355894 0.338285 -0.101564 -0.117564 0.338152 -0.104221 
-0.100759 0.337793 -0.104222 -0.10628 0.388716 -0.102576 -0.0979333 0.386424 -0.100597 
-0.0811016 0.392534 -0.0990067 -0.0745543 0.386424 -0.100597 -0.123188 0.211375 -0.0947653 
-0.110687 0.215476 -0.0964232 -0.0986313 0.253068 -0.0951709 -0.076089 0.253201 -0.0951707 
-0.0965835 0.324387 -0.0955299 -0.0780153 0.32565 -0.0955963 -0.0539838 0.321489 -0.0937833 
-0.0981343 0.368822 -0.0977537 -0.0781596 0.37189 -0.0926219 -0.0625089 0.375267 -0.0968765 
-0.0395931 0.375267 -0.0968765 -0.0774355 0.386831 -0.0917319 -0.0494883 0.384666 -0.0912947 
-0.0258966 0.384666 -0.0912947 -0.109304 0.218761 -0.0839174 -0.0323927 0.237405 -0.0832568 
-0.0152493 0.237427 -0.0833295 -0.12599 0.260187 -0.0877417 -0.113494 0.265205 -0.0894045 
-0.0324278 0.297373 -0.082143 -0.0152843 0.297397 -0.0822156 -0.0970516 0.304546 -0.0849255 
-0.0235279 0.325536 -0.088926 -0.0497378 0.326685 -0.0898267 -0.130696 0.335693 -0.086005 
-0.100371 0.335703 -0.0864163 -0.0286954 0.342893 -0.0832461 -0.103958 0.377288 -0.082757 
-0.0970516 0.392823 -0.0849255 -0.0739886 0.391157 -0.0851204 -0.0678089 0.393114 -0.0838374 
-0.126685 0.204003 -0.079901 -0.119636 0.203301 -0.0797772 -0.128269 0.211707 -0.0772229 
-0.126447 0.222923 -0.0812561 -0.11714 0.220362 -0.0743877 -0.11921 0.222533 -0.0809534 
-0.122233 0.226553 -0.0794853 -0.0833088 0.305411 -0.0777974 -0.0705215 0.304213 -0.0819998 
-0.0569785 0.305078 -0.0748559 -0.0999095 0.325144 -0.0752422 -0.0725781 0.325144 -0.0752422 
-0.0486174 0.350096 -0.0807903 -0.0263686 0.374162 -0.0779005 -0.00401621 0.374242 -0.0776971 
-0.126977 0.377339 -0.0824163 -0.0979333 0.386424 -0.0772184 -0.0745543 0.386424 -0.0772184 
-0.0569788 0.392532 -0.0748521 -0.126749 0.205452 -0.0728538 -0.119701 0.20475 -0.0727302 
-0.102973 0.218631 -0.0730096 -0.0902172 0.217607 -0.0719158 -0.101787 0.264675 -0.0731193 
-0.0890308 0.263651 -0.0720255 -0.0355894 0.338309 -0.070639 -0.0625785 0.346281 -0.0717151 
-0.0625137 0.375254 -0.0739578 -0.0395882 0.375254 -0.0739578 -0.0773508 0.386684 -0.0678692 
-0.0535192 0.386651 -0.0679418 -0.104295 0.218741 -0.060253 -0.0322935 0.236447 -0.0661146 
-0.01515 0.23647 -0.0661873 -0.103108 0.264786 -0.0603627 -0.0323284 0.296416 -0.0650006 
-0.0151851 0.296439 -0.0650735 -0.0970516 0.304546 -0.0605873 -0.0727134 0.304546 -0.0605873 
-0.0969484 0.324833 -0.0657829 -0.0795116 0.322849 -0.06687 -0.0682202 0.324833 -0.0657829 
-0.0517812 0.322916 -0.0669535 -0.0238082 0.328855 -0.0626825 -0.0687236 0.347064 -0.0652753 
-0.0372017 0.347064 -0.0652753 -0.0640109 0.370856 -0.0605627 -0.0419144 0.370856 -0.0605627 
-0.0241362 0.379341 -0.0661415 -0.000808192 0.379247 -0.0660146 -0.0924228 0.390845 -0.0654377 
-0.067689 0.389704 -0.065169 -0.0915386 0.217717 -0.0591593 -0.10628 0.254348 -0.0542882 
-0.0903522 0.263762 -0.059269 -0.130284 0.335719 -0.0556803 -0.0999603 0.33573 -0.0560918 
-0.0288968 0.343076 -0.052722 -0.00203881 0.34636 -0.0596473 -0.0265092 0.374076 -0.0555262 
-0.00410569 0.374148 -0.0553456 -0.126666 0.377358 -0.0594522 -0.103652 0.377277 -0.0596901 
-0.0991738 0.386265 -0.058143 -0.0756479 0.387406 -0.0584117 -0.10533 0.210686 -0.0533703 
-0.0930696 0.211665 -0.0525108 -0.0940197 0.255329 -0.0534287 -0.0536541 0.280712 -0.0510441 
-0.117116 0.310766 -0.0454675 -0.0915809 0.310766 -0.0454675 -0.0516599 0.360019 -0.0488171 
-0.0699513 0.381766 -0.0519318 -0.0450563 0.381662 -0.0522417 -0.118662 0.38857 -0.0498787 
-0.0920392 0.395105 -0.0450091 -0.106204 0.211637 -0.04111 -0.093944 0.212617 -0.0402504 
-0.107155 0.255301 -0.042028 -0.0948939 0.256279 -0.0411684 -0.0672455 0.306763 -0.0454649 
-0.0417099 0.307061 -0.0454136 -0.141647 0.327058 -0.0448557 -0.113518 0.327058 -0.0448557 
-0.0276312 0.332433 -0.0398834 -0.0300648 0.336818 -0.0392609 -0.0242616 0.379299 -0.0427971 
-0.000901414 0.379232 -0.0426721 -0.139305 0.384361 -0.0425131 -0.094506 0.38429 -0.0391052 
-0.0706626 0.38429 -0.0391052 -0.114622 0.396702 -0.0391998 -0.061102 0.301601 -0.0320299 
-0.0365642 0.301601 -0.0320299 -0.0969484 0.324863 -0.0370535 -0.0682202 0.324863 -0.0370535 
-0.0687236 0.347064 -0.0337535 -0.0372017 0.347064 -0.0337535 -0.0596205 0.387039 -0.0301349 
-0.0630618 0.39284 -0.0338431 -0.0403814 0.392251 -0.0330559 -0.0350262 0.387809 -0.0306635 
[...]
POINT_DATA 1380
FIELD FieldData 8
id 1 1380 int
3781 3801 3970 3894 3730 3749 3789 3994 3744 
3858 3023 3745 2648 2739 3985 3917 3359 2755 
3927 2901 3952 3937 3738 3966 3785 3852 3823 
3981 3932 3180 3808 3024 3685 3908 3296 3931 
3844 3586 3773 3360 3877 3135 3244 3960 3961 
3716 3830 3896 3939 3731 3943 3242 3903 3920 
3918 3714 3757 3879 3727 2484 3938 3182 3885 
3853 3787 3814 3815 3975 3831 3971 3746 3297 
3873 3919 3925 3786 3820 3906 3954 3962 3847 
3782 2961 3688 3720 2902 3836 3982 3825 2482 
3803 3950 3988 3854 3788 3940 3587 3775 3719 
3406 3911 3955 3909 3747 3790 3765 3910 3996 
3686 3760 3631 3729 5106 3969 5110 3871 3968 
2823 3325 3768 3863 2550 3864 2509 3721 3941 
3136 3632 3875 3776 3956 3689 4870 4867 4871 
4794 4798 4869 4865 4442 4446 4796 4800 4444 
4018 4448 4022 4866 4868 4872 4020 4786 4790 
4795 4799 4788 4797 4793 4792 4024 4787 4690 
4694 4443 4447 4226 4230 4692 4696 4019 4023 
4228 4232 4445 4791 4789 4785 4042 4924 4928 
4602 4606 4330 4334 4046 4021 4017 4441 4332 
4604 4336 4922 4926 4691 4695 4693 4689 4286 
4605 4608 4044 4048 4284 4229 4225 4927 4850 
4854 4925 4921 4852 4856 4594 4231 4227 4084 
4088 4058 4090 4596 4600 4288 5050 5054 5053 
5052 5049 5056 4923 4598 4603 4607 4331 4335 
4043 4060 4064 4086 4333 4329 4601 5051 5055 
4914 4918 4916 4920 4047 4282 4045 4041 4285 
4281 4915 4851 4855 4917 4853 4849 4595 4599 
4194 4283 4198 4287 4138 4026 4030 4028 4032 
4140 4144 4196 4200 4919 4940 4913 4085 4089 
4059 4063 4061 4057 4087 4091 4597 4593 4938 
4942 4944 4658 4475 4479 4660 4485 4474 4477 
4481 4939 4943 4941 4937 4483 4487 4258 4262 
4139 4092 4141 4137 4260 4197 4193 4264 4578 
4582 4195 4199 4027 4031 4580 4029 4025 4584 
4954 4956 4659 4096 4661 4094 4074 4478 4955 
4957 4476 4480 4259 4263 4076 4078 4095 4261 
4482 4860 4579 4583 4093 4581 4577 4257 4080 
4073 4882 4075 4082 4886 4884 4888 4362 4366 
4077 4079 4083 4364 4368 4883 4346 4350 4081 
4348 4352 4887 4885 4881 4674 4678 4162 4166 
4676 4680 4164 4168 4363 4367 4314 4318 4012 
4316 4320 4008 4365 4361 4962 4966 4964 4968 
4634 4638 4484 4488 4347 4351 4354 4636 4270 
4034 4640 4268 4349 4152 4473 4345 4486 4356 
4963 4967 4965 4961 4675 4679 4498 4146 4150 
4266 4163 4167 4677 4673 4165 4038 4036 4161 
4040 4272 4734 4730 4319 4355 4115 4119 4736 
4732 4637 4004 4035 4002 4117 4121 4068 4072 
4269 4148 4212 4770 4774 4635 4639 4315 4210 
4214 4154 4158 4772 4776 4005 4633 4071 4500 
4156 4160 4389 4313 4357 4216 4530 4499 4534 
4387 4391 4234 4238 4066 4267 4070 4271 4127 
4729 4149 4114 4236 4240 4317 4037 4536 4265 
4125 4393 5105 5112 5108 5109 4731 4735 4159 
4001 4147 4151 4123 4733 4124 4003 4039 4069 
4033 4065 4006 4771 4775 4450 4454 4538 4586 
4590 4418 4422 4235 4116 4239 4773 4769 4120 
4067 4452 4456 4128 4007 4118 4157 4122 4153 
4592 4501 4145 4424 5082 5086 5084 5088 4531 
4535 4388 4211 4215 4155 4178 4182 4532 4126 
4113 4180 4184 4237 4233 4296 4533 4213 4529 
4209 4420 5083 5087 5085 5081 4591 4559 4392 
4395 4399 4290 4338 4342 4294 4588 4292 4561 
4340 4344 4557 4394 4386 4451 4455 4587 4555 
4611 4615 4419 4423 4506 4510 4724 4541 4453 
4449 4613 4589 4585 4508 4512 4397 4421 4417 
5034 5038 4826 4830 5036 5040 4623 4814 4738 
4742 4539 4722 4726 4291 4295 4179 4183 4728 
4617 4181 4177 4293 4289 5035 5039 4619 4874 
4878 5037 5033 4621 4828 4832 4556 4560 4339 
4343 4740 4744 4050 4610 4396 4390 4052 4341 
4337 4558 4562 4831 4827 4810 4880 4812 4816 
4612 4616 4274 4507 4511 4400 4725 4614 4618 
4509 4505 4398 4385 4875 4879 4624 4876 4739 
4743 4723 4727 4829 4825 4741 4737 4721 4553 
4566 4620 4811 4622 4877 4815 4564 4568 4873 
4813 4809 4563 4567 4609 4051 4055 4053 4565 
4554 4218 4219 5111 5107 3899 3849 3161 3818 
3405 3838 3755 3945 3811 3784 3440 3778 3876 
3972 3934 2591 3762 3860 3025 2481 3856 3900 
3717 3964 3978 3957 3806 3741 2989 3922 3711 
3869 2927 3723 3888 3867 2483 3441 3737 3805 
3324 3850 3614 3851 3819 3809 3712 3890 3914 
3766 3162 2824 3771 2751 3691 3812 2690 3758 
3840 3991 3665 2962 3208 3946 3791 3770 3732 
3442 3668 2748 3995 3889 2749 3828 3870 3779 
3764 3263 5042 5046 3718 5047 3777 3385 3916 
3692 3763 3913 5119 5118 5095 3999 3993 3979 
3974 3923 2963 3924 3998 3772 2790 5115 5114 
3667 3693 3848 2928 3947 3750 3739 3715 3810 
3935 3751 3892 3443 3461 3835 3733 3298 3861 
3846 3958 3936 3833 3843 3754 2753 3792 3977 
3930 3883 3926 2868 3798 3725 3444 3326 4902 
4898 4900 4904 4714 4718 4716 4720 4899 4903 
4834 4838 4897 4901 4836 4840 4994 4998 4996 
5000 4715 4719 4626 4630 4717 4713 4628 4632 
4999 4835 4839 4993 4837 4833 4515 4519 4517 
4521 4995 4997 4402 4406 4404 4408 4972 4976 
4974 4978 4627 4631 4523 4527 4629 4625 4525 
4514 4973 4977 4975 4979 4702 4698 4516 4520 
4700 4704 4518 4522 4403 4407 4405 4401 4980 
4984 4982 4986 4758 4426 4430 4760 4062 4428 
4432 4981 4985 4983 4987 4754 4703 4699 4524 
4528 4756 4701 4697 4526 4513 5062 5058 5064 
5060 5057 5061 4766 4490 4494 4370 4753 4142 
4298 4302 4492 4496 4372 4376 5010 5014 5063 
5059 5012 5016 4755 4759 4762 4896 4427 4431 
4202 4206 4757 4374 4764 4768 4300 4304 4429 
4425 5011 5015 5009 4890 5013 4894 4892 4491 
4495 4546 4204 4208 4548 4493 4489 4946 4988 
4992 4763 4767 4889 4893 4662 4686 4682 4550 
4458 4664 4684 4552 4460 4971 4950 4989 4891 
4895 4970 4948 4952 4990 4666 4670 4761 4462 
4371 4375 4143 4303 4765 4299 4688 4668 4672 
4301 4464 4373 4369 4947 4951 4991 4969 4949 
4945 4463 4459 4203 4207 4205 4201 4297 4461 
4457 4958 4953 4960 4663 4683 4687 4646 4642 
4547 4551 4685 4657 4681 4644 4648 4545 4549 
4959 4862 4864 4667 4671 4669 4665 5044 5048 
5043 5045 5041 4858 4647 4857 4643 4645 4641 
4859 4863 4861 5092 5093 5090 5089 5096 4650 
4654 4652 4656 5002 5006 4802 4806 5004 5008 
4804 4808 4014 4010 5003 5007 5005 5001 4746 
4750 4378 4382 4748 4752 4306 4310 4384 4380 
4308 4312 5104 5100 4803 4807 4651 4805 4801 
4653 4649 5097 5101 4655 4358 4186 4016 4360 
4192 4747 4751 4379 4383 4706 4710 4502 4745 
4749 4540 4708 4712 4381 4377 4309 5074 5078 
5076 5080 4190 4247 4307 4311 4243 4103 4013 
4009 4188 4101 4305 4245 5075 5079 5077 5073 
4504 4185 4353 4249 4707 4711 4503 4709 4011 
4015 4105 4410 4414 4187 4191 4705 4099 4324 
4328 4189 4412 4416 4246 4542 4326 4248 4322 
4244 4100 4104 4359 4544 4102 4250 5026 5030 
4910 4906 4908 4912 4434 4438 4497 4436 4440 
4106 5066 5070 5027 5031 5068 5072 5028 5032 
4909 4905 4415 4255 4130 4134 4325 4321 4253 
4242 4409 5018 5022 5071 5069 5065 4907 5020 
4911 5024 5029 5025 4543 4411 4465 4222 4170 
4174 4537 4132 4136 4220 4224 4413 4433 5019 
5023 4842 4846 5021 5017 4818 4822 4435 4439 
4820 4824 4323 4327 4251 4276 4172 4176 4437 
4930 4934 4932 4936 4844 4848 4570 4574 4466 
4470 4054 4056 4133 4572 4576 4468 4472 4931 
4935 4843 4847 4278 4252 4256 4131 4135 4107 
4111 4129 4109 4098 4221 4254 4241 4280 4779 
4819 4823 4782 4933 4929 4845 4841 4781 4821 
4817 4784 4469 4223 4171 4175 4277 4173 4169 
4217 4783 4778 4777 4275 4279 4571 4575 4467 
4471 4780 4108 4112 4049 4110 4097 4573 4569 
4273 5091 5120 5094 5098 5117 5116 5102 5103 
5099 5067 5113 
type 1 1380 int
2 2 2 2 2 2 2 2 2 
2 2 2 2 2 2 2 2 2 
2 2 2 2 2 2 2 2 2 
2 2 2 2 2 2 2 2 2 
2 2 2 2 2 2 2 2 2 
2 2 2 2 2 2 2 2 2 
2 2 2 2 2 2 2 2 2 
2 2 2 2 2 2 2 2 2 
2 2 2 2 2 2 2 2 2 
2 2 2 2 2 2 2 2 2 
2 2 2 2 2 2 2 2 2 
2 2 2 2 2 2 2 2 2 
2 2 2 2 2 2 2 2 2 
2 2 2 2 2 2 2 2 2 
2 2 2 2 2 2 2 2 2 
2 2 2 2 2 2 2 2 2 
2 2 2 2 2 2 2 2 2 
2 2 2 2 2 2 2 2 2 
2 2 2 2 2 2 2 2 2 
2 2 2 2 2 2 2 2 2 
2 2 2 2 2 2 2 2 2 
2 2 2 2 2 2 2 2 2 
2 2 2 2 2 2 2 2 2 
2 2 2 2 2 2 2 2 2 
2 2 2 2 2 2 2 2 2 
2 2 2 2 2 2 2 2 2 
2 2 2 2 2 2 2 2 2 
2 2 2 2 2 2 2 2 2 
2 2 2 2 2 2 2 2 2 
2 2 2 2 2 2 2 2 2 
2 2 2 2 2 2 2 2 2 
2 2 2 2 2 2 2 2 2 
2 2 2 2 2 2 2 2 2 
2 2 2 2 2 2 2 2 2 
2 2 2 2 2 2 2 2 2 
2 2 2 2 2 2 2 2 2 
2 2 2 2 2 2 2 2 2 
2 2 2 2 2 2 2 2 2 
2 2 2 2 2 2 2 2 2 
2 2 2 2 2 2 2 2 2 
2 2 2 2 2 2 2 2 2 
2 2 2 2 2 2 2 2 2 
2 2 2 2 2 2 2 2 2 
2 2 2 2 2 2 2 2 2 
2 2 2 2 2 2 2 2 2 
2 2 2 2 2 2 2 2 2 
2 2 2 2 2 2 2 2 2 
2 2 2 2 2 2 2 2 2 
2 2 2 2 2 2 2 2 2 
2 2 2 2 2 2 2 2 2 
2 2 2 2 2 2 2 2 2 
2 2 2 2 2 2 2 2 2 
2 2 2 2 2 2 2 2 2 
2 2 2 2 2 2 2 2 2 
2 2 2 2 2 2 2 2 2 
2 2 2 2 2 2 2 2 2 
2 2 2 2 2 2 2 2 2 
2 2 2 2 2 2 2 2 2 
2 2 2 2 2 2 2 2 2 
2 2 2 2 2 2 2 2 2 
2 2 2 2 2 2 2 2 2 
2 2 2 2 2 2 2 2 2 
2 2 2 2 2 2 2 2 2 
2 2 2 2 2 2 2 2 2 
2 2 2 2 2 2 2 2 2 
2 2 2 2 2 2 2 2 2 
2 2 2 2 2 2 2 2 2 
2 2 2 2 2 2 2 2 2 
2 2 2 2 2 2 2 2 2 
2 2 2 2 2 2 2 2 2 
2 2 2 2 2 2 2 2 2 
2 2 2 2 2 2 2 2 2 
2 2 2 2 2 2 2 2 2 
2 2 2 2 2 2 2 2 2 
2 2 2 2 2 2 2 2 2 
2 2 2 2 2 2 2 2 2 
2 2 2 2 2 2 2 2 2 
2 2 2 2 2 2 2 2 2 
2 2 2 2 2 2 2 2 2 
2 2 2 2 2 2 2 2 2 
2 2 2 2 2 2 2 2 2 
2 2 2 2 2 2 2 2 2 
2 2 2 2 2 2 2 2 2 
2 2 2 2 2 2 2 2 2 
2 2 2 2 2 2 2 2 2 
2 2 2 2 2 2 2 2 2 
2 2 2 2 2 2 2 2 2 
2 2 2 2 2 2 2 2 2 
2 2 2 2 2 2 2 2 2 
2 2 2 2 2 2 2 2 2 
2 2 2 2 2 2 2 2 2 
2 2 2 2 2 2 2 2 2 
2 2 2 2 2 2 2 2 2 
2 2 2 2 2 2 2 2 2 
2 2 2 2 2 2 2 2 2 
2 2 2 2 2 2 2 2 2 
2 2 2 2 2 2 2 2 2 
2 2 2 2 2 2 2 2 2 
2 2 2 2 2 2 2 2 2 
2 2 2 2 2 2 2 2 2 
2 2 2 2 2 2 2 2 2 
2 2 2 2 2 2 2 2 2 
2 2 2 2 2 2 2 2 2 
2 2 2 2 2 2 2 2 2 
2 2 2 2 2 2 2 2 2 
2 2 2 2 2 2 2 2 2 
2 2 2 2 2 2 2 2 2 
2 2 2 2 2 2 2 2 2 
2 2 2 2 2 2 2 2 2 
2 2 2 2 2 2 2 2 2 
2 2 2 2 2 2 2 2 2 
2 2 2 2 2 2 2 2 2 
2 2 2 2 2 2 2 2 2 
2 2 2 2 2 2 2 2 2 
2 2 2 2 2 2 2 2 2 
2 2 2 2 2 2 2 2 2 
2 2 2 2 2 2 2 2 2 
2 2 2 2 2 2 2 2 2 
2 2 2 2 2 2 2 2 2 
2 2 2 2 2 2 2 2 2 
2 2 2 2 2 2 2 2 2 
2 2 2 2 2 2 2 2 2 
2 2 2 2 2 2 2 2 2 
2 2 2 2 2 2 2 2 2 
2 2 2 2 2 2 2 2 2 
2 2 2 2 2 2 2 2 2 
2 2 2 2 2 2 2 2 2 
2 2 2 2 2 2 2 2 2 
2 2 2 2 2 2 2 2 2 
2 2 2 2 2 2 2 2 2 
2 2 2 2 2 2 2 2 2 
2 2 2 2 2 2 2 2 2 
2 2 2 2 2 2 2 2 2 
2 2 2 2 2 2 2 2 2 
2 2 2 2 2 2 2 2 2 
2 2 2 2 2 2 2 2 2 
2 2 2 2 2 2 2 2 2 
2 2 2 2 2 2 2 2 2 
2 2 2 2 2 2 2 2 2 
2 2 2 2 2 2 2 2 2 
2 2 2 2 2 2 2 2 2 
2 2 2 2 2 2 2 2 2 
2 2 2 2 2 2 2 2 2 
2 2 2 2 2 2 2 2 2 
2 2 2 2 2 2 2 2 2 
2 2 2 2 2 2 2 2 2 
2 2 2 2 2 2 2 2 2 
2 2 2 2 2 2 2 2 2 
2 2 2 2 2 2 2 2 2 
2 2 2 2 2 2 2 2 2 
2 2 2 2 2 2 2 2 2 
2 2 2 2 2 2 2 2 2 
2 2 2 2 2 2 2 2 2 
2 2 2 
i 3 1380 int
0 0 0 0 0 0 0 0 0 
0 0 0 0 0 0 0 0 0 
0 0 0 0 0 0 0 0 0 
0 0 0 0 0 0 0 0 0 
0 0 0 0 0 0 0 0 0 
0 0 0 0 0 0 0 0 0 
0 0 0 0 0 0 0 0 0 
0 0 0 0 0 0 0 0 0 
0 0 0 0 0 0 0 0 0 
0 0 0 0 0 0 0 0 0 
0 0 0 0 0 0 0 0 0 
0 0 0 0 0 0 0 0 0 
0 0 0 0 0 0 0 0 0 
0 0 0 0 0 0 0 0 0 
0 0 0 0 0 0 0 0 0 
0 0 0 0 0 0 0 0 0 
0 0 0 0 0 0 0 0 0 
0 0 0 0 0 0 0 0 0 
0 0 0 0 0 0 0 0 0 
0 0 0 0 0 0 0 0 0 
0 0 0 0 0 0 0 0 0 
0 0 0 0 0 0 0 0 0 
0 0 0 0 0 0 0 0 0 
0 0 0 0 0 0 0 0 0 
0 0 0 0 0 0 0 0 0 
0 0 0 0 0 0 0 0 0 
0 0 0 0 0 0 0 0 0 
0 0 0 0 0 0 0 0 0 
0 0 0 0 0 0 0 0 0 
0 0 0 0 0 0 0 0 0 
0 0 0 0 0 0 0 0 0 
0 0 0 0 0 0 0 0 0 
0 0 0 0 0 0 0 0 0 
0 0 0 0 0 0 0 0 0 
0 0 0 0 0 0 0 0 0 
0 0 0 0 0 0 0 0 0 
0 0 0 0 0 0 0 0 0 
0 0 0 0 0 0 0 0 0 
0 0 0 0 0 0 0 0 0 
0 0 0 0 0 0 0 0 0 
0 0 0 0 0 0 0 0 0 
0 0 0 0 0 0 0 0 0 
0 0 0 0 0 0 0 0 0 
0 0 0 0 0 0 0 0 0 
0 0 0 0 0 0 0 0 0 
0 0 0 0 0 0 0 0 0 
0 0 0 0 0 0 0 0 0 
0 0 0 0 0 0 0 0 0 
0 0 0 0 0 0 0 0 0 
0 0 0 0 0 0 0 0 0 
0 0 0 0 0 0 0 0 0 
0 0 0 0 0 0 0 0 0 
0 0 0 0 0 0 0 0 0 
0 0 0 0 0 0 0 0 0 
0 0 0 0 0 0 0 0 0 
0 0 0 0 0 0 0 0 0 
0 0 0 0 0 0 0 0 0 
0 0 0 0 0 0 0 0 0 
0 0 0 0 0 0 0 0 0 
0 0 0 0 0 0 0 0 0 
0 0 0 0 0 0 0 0 0 
0 0 0 0 0 0 0 0 0 
0 0 0 0 0 0 0 0 0 
0 0 0 0 0 0 0 0 0 
0 0 0 0 0 0 0 0 0 
0 0 0 0 0 0 0 0 0 
0 0 0 0 0 0 0 0 0 
0 0 0 0 0 0 0 0 0 
0 0 0 0 0 0 0 0 0 
0 0 0 0 0 0 0 0 0 
0 0 0 0 0 0 0 0 0 
0 0 0 0 0 0 0 0 0 
0 0 0 0 0 0 0 0 0 
0 0 0 0 0 0 0 0 0 
0 0 0 0 0 0 0 0 0 
0 0 0 0 0 0 0 0 0 
0 0 0 0 0 0 0 0 0 
0 0 0 0 0 0 0 0 0 
0 0 0 0 0 0 0 0 0 
0 0 0 0 0 0 0 0 0 
0 0 0 0 0 0 0 0 0 
0 0 0 0 0 0 0 0 0 
0 0 0 0 0 0 0 0 0 
0 0 0 0 0 0 0 0 0 
0 0 0 0 0 0 0 0 0 
0 0 0 0 0 0 0 0 0 
0 0 0 0 0 0 0 0 0 
0 0 0 0 0 0 0 0 0 
0 0 0 0 0 0 0 0 0 
0 0 0 0 0 0 0 0 0 
0 0 0 0 0 0 0 0 0 
0 0 0 0 0 0 0 0 0 
0 0 0 0 0 0 0 0 0 
0 0 0 0 0 0 0 0 0 
0 0 0 0 0 0 0 0 0 
0 0 0 0 0 0 0 0 0 
0 0 0 0 0 0 0 0 0 
0 0 0 0 0 0 0 0 0 
0 0 0 0 0 0 0 0 0 
0 0 0 0 0 0 0 0 0 
0 0 0 0 0 0 0 0 0 
0 0 0 0 0 0 0 0 0 
0 0 0 0 0 0 0 0 0 
0 0 0 0 0 0 0 0 0 
0 0 0 0 0 0 0 0 0 
0 0 0 0 0 0 0 0 0 
0 0 0 0 0 0 0 0 0 
0 0 0 0 0 0 0 0 0 
0 0 0 0 0 0 0 0 0 
0 0 0 0 0 0 0 0 0 
0 0 0 0 0 0 0 0 0 
0 0 0 0 0 0 0 0 0 
0 0 0 0 0 0 0 0 0 
0 0 0 0 0 0 0 0 0 
0 0 0 0 0 0 0 0 0 
0 0 0 0 0 0 0 0 0 
0 0 0 0 0 0 0 0 0 
0 0 0 0 0 0 0 0 0 
0 0 0 0 0 0 0 0 0 
0 0 0 0 0 0 0 0 0 
0 0 0 0 0 0 0 0 0 
0 0 0 0 0 0 0 0 0 
0 0 0 0 0 0 0 0 0 
0 0 0 0 0 0 0 0 0 
0 0 0 0 0 0 0 0 0 
0 0 0 0 0 0 0 0 0 
0 0 0 0 0 0 0 0 0 
0 0 0 0 0 0 0 0 0 
0 0 0 0 0 0 0 0 0 
0 0 0 0 0 0 0 0 0 
0 0 0 0 0 0 0 0 0 
0 0 0 0 0 0 0 0 0 
0 0 0 0 0 0 0 0 0 
0 0 0 0 0 0 0 0 0 
0 0 0 0 0 0 0 0 0 
0 0 0 0 0 0 0 0 0 
0 0 0 0 0 0 0 0 0 
0 0 0 0 0 0 0 0 0 
0 0 0 0 0 0 0 0 0 
0 0 0 0 0 0 0 0 0 
0 0 0 0 0 0 0 0 0 
0 0 0 0 0 0 0 0 0 
0 0 0 0 0 0 0 0 0 
0 0 0 0 0 0 0 0 0 
0 0 0 0 0 0 0 0 0 
0 0 0 0 0 0 0 0 0 
0 0 0 0 0 0 0 0 0 
0 0 0 0 0 0 0 0 0 
0 0 0 0 0 0 0 0 0 
0 0 0 0 0 0 0 0 0 
0 0 0 0 0 0 0 0 0 
0 0 0 0 0 0 0 0 0 
0 0 0 0 0 0 0 0 0 
0 0 0 0 0 0 0 0 0 
0 0 0 0 0 0 0 0 0 
0 0 0 0 0 0 0 0 0 
0 0 0 0 0 0 0 0 0 
0 0 0 0 0 0 0 0 0 
0 0 0 0 0 0 0 0 0 
0 0 0 0 0 0 0 0 0 
0 0 0 0 0 0 0 0 0 
0 0 0 0 0 0 0 0 0 
0 0 0 0 0 0 0 0 0 
0 0 0 0 0 0 0 0 0 
0 0 0 0 0 0 0 0 0 
0 0 0 0 0 0 0 0 0 
0 0 0 0 0 0 0 0 0 
0 0 0 0 0 0 0 0 0 
0 0 0 0 0 0 0 0 0 
0 0 0 0 0 0 0 0 0 
0 0 0 0 0 0 0 0 0 
0 0 0 0 0 0 0 0 0 
0 0 0 0 0 0 0 0 0 
0 0 0 0 0 0 0 0 0 
0 0 0 0 0 0 0 0 0 
0 0 0 0 0 0 0 0 0 
0 0 0 0 0 0 0 0 0 
0 0 0 0 0 0 0 0 0 
0 0 0 0 0 0 0 0 0 
0 0 0 0 0 0 0 0 0 
0 0 0 0 0 0 0 0 0 
0 0 0 0 0 0 0 0 0 
0 0 0 0 0 0 0 0 0 
0 0 0 0 0 0 0 0 0 
0 0 0 0 0 0 0 0 0 
0 0 0 0 0 0 0 0 0 
0 0 0 0 0 0 0 0 0 
0 0 0 0 0 0 0 0 0 
0 0 0 0 0 0 0 0 0 
0 0 0 0 0 0 0 0 0 
0 0 0 0 0 0 0 0 0 
0 0 0 0 0 0 0 0 0 
0 0 0 0 0 0 0 0 0 
0 0 0 0 0 0 0 0 0 
0 0 0 0 0 0 0 0 0 
0 0 0 0 0 0 0 0 0 
0 0 0 0 0 0 0 0 0 
0 0 0 0 0 0 0 0 0 
0 0 0 0 0 0 0 0 0 
0 0 0 0 0 0 0 0 0 
0 0 0 0 0 0 0 0 0 
0 0 0 0 0 0 0 0 0 
0 0 0 0 0 0 0 0 0 
0 0 0 0 0 0 0 0 0 
0 0 0 0 0 0 0 0 0 
0 0 0 0 0 0 0 0 0 
0 0 0 0 0 0 0 0 0 
0 0 0 0 0 0 0 0 0 
0 0 0 0 0 0 0 0 0 
0 0 0 0 0 0 0 0 0 
0 0 0 0 0 0 0 0 0 
0 0 0 0 0 0 0 0 0 
0 0 0 0 0 0 0 0 0 
0 0 0 0 0 0 0 0 0 
0 0 0 0 0 0 0 0 0 
0 0 0 0 0 0 0 0 0 
0 0 0 0 0 0 0 0 0 
0 0 0 0 0 0 0 0 0 
0 0 0 0 0 0 0 0 0 
0 0 0 0 0 0 0 0 0 
0 0 0 0 0 0 0 0 0 
0 0 0 0 0 0 0 0 0 
0 0 0 0 0 0 0 0 0 
0 0 0 0 0 0 0 0 0 
0 0 0 0 0 0 0 0 0 
0 0 0 0 0 0 0 0 0 
0 0 0 0 0 0 0 0 0 
0 0 0 0 0 0 0 0 0 
0 0 0 0 0 0 0 0 0 
0 0 0 0 0 0 0 0 0 
0 0 0 0 0 0 0 0 0 
0 0 0 0 0 0 0 0 0 
0 0 0 0 0 0 0 0 0 
0 0 0 0 0 0 0 0 0 
0 0 0 0 0 0 0 0 0 
0 0 0 0 0 0 0 0 0 
0 0 0 0 0 0 0 0 0 
0 0 0 0 0 0 0 0 0 
0 0 0 0 0 0 0 0 0 
0 0 0 0 0 0 0 0 0 
0 0 0 0 0 0 0 0 0 
0 0 0 0 0 0 0 0 0 
0 0 0 0 0 0 0 0 0 
0 0 0 0 0 0 0 0 0 
0 0 0 0 0 0 0 0 0 
0 0 0 0 0 0 0 0 0 
0 0 0 0 0 0 0 0 0 
0 0 0 0 0 0 0 0 0 
0 0 0 0 0 0 0 0 0 
0 0 0 0 0 0 0 0 0 
0 0 0 0 0 0 0 0 0 
0 0 0 0 0 0 0 0 0 
0 0 0 0 0 0 0 0 0 
0 0 0 0 0 0 0 0 0 
0 0 0 0 0 0 0 0 0 
0 0 0 0 0 0 0 0 0 
0 0 0 0 0 0 0 0 0 
0 0 0 0 0 0 0 0 0 
0 0 0 0 0 0 0 0 0 
0 0 0 0 0 0 0 0 0 
0 0 0 0 0 0 0 0 0 
0 0 0 0 0 0 0 0 0 
0 0 0 0 0 0 0 0 0 
0 0 0 0 0 0 0 0 0 
0 0 0 0 0 0 0 0 0 
0 0 0 0 0 0 0 0 0 
0 0 0 0 0 0 0 0 0 
0 0 0 0 0 0 0 0 0 
0 0 0 0 0 0 0 0 0 
0 0 0 0 0 0 0 0 0 
0 0 0 0 0 0 0 0 0 
0 0 0 0 0 0 0 0 0 
0 0 0 0 0 0 0 0 0 
0 0 0 0 0 0 0 0 0 
0 0 0 0 0 0 0 0 0 
0 0 0 0 0 0 0 0 0 
0 0 0 0 0 0 0 0 0 
0 0 0 0 0 0 0 0 0 
0 0 0 0 0 0 0 0 0 
0 0 0 0 0 0 0 0 0 
0 0 0 0 0 0 0 0 0 
0 0 0 0 0 0 0 0 0 
0 0 0 0 0 0 0 0 0 
0 0 0 0 0 0 0 0 0 
0 0 0 0 0 0 0 0 0 
0 0 0 0 0 0 0 0 0 
0 0 0 0 0 0 0 0 0 
0 0 0 0 0 0 0 0 0 
0 0 0 0 0 0 0 0 0 
0 0 0 0 0 0 0 0 0 
0 0 0 0 0 0 0 0 0 
0 0 0 0 0 0 0 0 0 
0 0 0 0 0 0 0 0 0 
0 0 0 0 0 0 0 0 0 
0 0 0 0 0 0 0 0 0 
0 0 0 0 0 0 0 0 0 
0 0 0 0 0 0 0 0 0 
0 0 0 0 0 0 0 0 0 
0 0 0 0 0 0 0 0 0 
0 0 0 0 0 0 0 0 0 
0 0 0 0 0 0 0 0 0 
0 0 0 0 0 0 0 0 0 
0 0 0 0 0 0 0 0 0 
0 0 0 0 0 0 0 0 0 
0 0 0 0 0 0 0 0 0 
0 0 0 0 0 0 0 0 0 
0 0 0 0 0 0 0 0 0 
0 0 0 0 0 0 0 0 0 
0 0 0 0 0 0 0 0 0 
0 0 0 0 0 0 0 0 0 
0 0 0 0 0 0 0 0 0 
0 0 0 0 0 0 0 0 0 
0 0 0 0 0 0 0 0 0 
0 0 0 0 0 0 0 0 0 
0 0 0 0 0 0 0 0 0 
0 0 0 0 0 0 0 0 0 
0 0 0 0 0 0 0 0 0 
0 0 0 0 0 0 0 0 0 
0 0 0 0 0 0 0 0 0 
0 0 0 0 0 0 0 0 0 
0 0 0 0 0 0 0 0 0 
0 0 0 0 0 0 0 0 0 
0 0 0 0 0 0 0 0 0 
0 0 0 0 0 0 0 0 0 
0 0 0 0 0 0 0 0 0 
0 0 0 0 0 0 0 0 0 
0 0 0 0 0 0 0 0 0 
0 0 0 0 0 0 0 0 0 
0 0 0 0 0 0 0 0 0 
0 0 0 0 0 0 0 0 0 
0 0 0 0 0 0 0 0 0 
0 0 0 0 0 0 0 0 0 
0 0 0 0 0 0 0 0 0 
0 0 0 0 0 0 0 0 0 
0 0 0 0 0 0 0 0 0 
0 0 0 0 0 0 0 0 0 
0 0 0 0 0 0 0 0 0 
0 0 0 0 0 0 0 0 0 
0 0 0 0 0 0 0 0 0 
0 0 0 0 0 0 0 0 0 
0 0 0 0 0 0 0 0 0 
0 0 0 0 0 0 0 0 0 
0 0 0 0 0 0 0 0 0 
0 0 0 0 0 0 0 0 0 
0 0 0 0 0 0 0 0 0 
0 0 0 0 0 0 0 0 0 
0 0 0 0 0 0 0 0 0 
0 0 0 0 0 0 0 0 0 
0 0 0 0 0 0 0 0 0 
0 0 0 0 0 0 0 0 0 
0 0 0 0 0 0 0 0 0 
0 0 0 0 0 0 0 0 0 
0 0 0 0 0 0 0 0 0 
0 0 0 0 0 0 0 0 0 
0 0 0 0 0 0 0 0 0 
0 0 0 0 0 0 0 0 0 
0 0 0 0 0 0 0 0 0 
0 0 0 0 0 0 0 0 0 
0 0 0 0 0 0 0 0 0 
0 0 0 0 0 0 0 0 0 
0 0 0 0 0 0 0 0 0 
0 0 0 0 0 0 0 0 0 
0 0 0 0 0 0 0 0 0 
0 0 0 0 0 0 0 0 0 
0 0 0 0 0 0 0 0 0 
0 0 0 0 0 0 0 0 0 
0 0 0 0 0 0 0 0 0 
0 0 0 0 0 0 0 0 0 
0 0 0 0 0 0 0 0 0 
0 0 0 0 0 0 0 0 0 
0 0 0 0 0 0 0 0 0 
0 0 0 0 0 0 0 0 0 
0 0 0 0 0 0 0 0 0 
0 0 0 0 0 0 0 0 0 
0 0 0 0 0 0 0 0 0 
0 0 0 0 0 0 0 0 0 
0 0 0 0 0 0 0 0 0 
0 0 0 0 0 0 0 0 0 
0 0 0 0 0 0 0 0 0 
0 0 0 0 0 0 0 0 0 
0 0 0 0 0 0 0 0 0 
0 0 0 0 0 0 0 0 0 
0 0 0 0 0 0 0 0 0 
0 0 0 0 0 0 0 0 0 
0 0 0 0 0 0 0 0 0 
0 0 0 0 0 0 0 0 0 
0 0 0 0 0 0 0 0 0 
0 0 0 0 0 0 0 0 0 
0 0 0 0 0 0 0 0 0 
0 0 0 0 0 0 0 0 0 
0 0 0 0 0 0 0 0 0 
0 0 0 0 0 0 0 0 0 
0 0 0 0 0 0 0 0 0 
0 0 0 0 0 0 0 0 0 
0 0 0 0 0 0 0 0 0 
0 0 0 0 0 0 0 0 0 
0 0 0 0 0 0 0 0 0 
0 0 0 0 0 0 0 0 0 
0 0 0 0 0 0 0 0 0 
0 0 0 0 0 0 0 0 0 
0 0 0 0 0 0 0 0 0 
0 0 0 0 0 0 0 0 0 
0 0 0 0 0 0 0 0 0 
0 0 0 0 0 0 0 0 0 
0 0 0 0 0 0 0 0 0 
0 0 0 0 0 0 0 0 0 
0 0 0 0 0 0 0 0 0 
0 0 0 0 0 0 0 0 0 
0 0 0 0 0 0 0 0 0 
0 0 0 0 0 0 0 0 0 
0 0 0 0 0 0 0 0 0 
0 0 0 0 0 0 0 0 0 
0 0 0 0 0 0 0 0 0 
0 0 0 0 0 0 0 0 0 
0 0 0 0 0 0 0 0 0 
0 0 0 0 0 0 0 0 0 
0 0 0 0 0 0 0 0 0 
0 0 0 0 0 0 0 0 0 
0 0 0 0 0 0 0 0 0 
0 0 0 0 0 0 0 0 0 
0 0 0 0 0 0 0 0 0 
0 0 0 0 0 0 0 0 0 
0 0 0 0 0 0 0 0 0 
0 0 0 0 0 0 0 0 0 
0 0 0 0 0 0 0 0 0 
0 0 0 0 0 0 0 0 0 
0 0 0 0 0 0 0 0 0 
0 0 0 0 0 0 0 0 0 
0 0 0 0 0 0 0 0 0 
0 0 0 0 0 0 0 0 0 
0 0 0 0 0 0 0 0 0 
0 0 0 0 0 0 0 0 0 
0 0 0 0 0 0 0 0 0 
0 0 0 0 0 0 0 0 0 
0 0 0 0 0 0 0 0 0 
0 0 0 0 0 0 0 0 0 
0 0 0 0 0 0 0 0 0 
0 0 0 0 0 0 0 0 0 
0 0 0 0 0 0 0 0 0 
0 0 0 0 0 0 0 0 0 
0 0 0 0 0 0 0 0 0 
0 0 0 0 0 0 0 0 0 
0 0 0 0 0 0 0 0 0 
0 0 0 0 0 0 0 0 0 
0 0 0 0 0 0 0 0 0 
0 0 0 0 0 0 0 0 0 
0 0 0 0 0 0 0 0 0 
0 0 0 0 0 0 0 0 0 
0 0 0 0 0 0 0 0 0 
0 0 0 0 0 0 0 0 0 
0 0 0 0 0 0 0 0 0 
0 0 0 0 0 0 0 0 0 
0 0 0 0 0 0 0 0 0 
0 0 0 0 0 0 0 0 0 
0 0 0 0 0 0 0 0 0 
0 0 0 0 0 0 0 0 0 
0 0 0 0 0 0 0 0 0 
0 0 0 0 0 0 0 0 0 
0 0 0 0 0 0 0 0 0 
0 0 0 0 0 0 0 0 0 

v 3 1380 double
0.011712751963 -0.0037290385148 -0.0011384930739 0.012495207426 0.0006345144298 0.0021036559241 -0.00080340767465 0.032226313364 0.019562144673 
-0.0045732150366 0.00083882554838 -0.025395399488 -0.11705411993 0.011019735801 -0.0039391850849 -0.15472652587 0.054371164332 0.017807489663 
-0.084222972431 0.081829535961 -0.0015657430505 -0.015970077835 0.15166809512 0.0078683031147 0.0084999301845 0.1323890659 0.0081926522313 
-0.015444081516 0.16804910789 -0.083079636091 0.052127350168 -0.038472436292 -0.01117748464 -0.0056303209371 0.0085283445581 0.016039859049 
-0.027173646627 0.011902077028 0.021408443641 0.0086390268809 0.038845535794 -0.0015567670795 -0.048854073712 0.026637929028 -0.011723865227 
-0.078830096885 0.05744859893 0.00019912973901 0.022602082713 0.14032411163 -0.0074231145526 -0.017899220674 0.018956035487 -0.014433201323 
-0.01040054753 0.0058004044742 0.04555054737 0.019798951085 0.040401127349 0.0076420378047 -0.044479431725 0.065727100263 0.003206731493 
0.00042695319134 0.13846042764 0.029105660503 0.0049081045165 0.048854951722 -0.013857902743 -0.1632132347 0.016458060305 -0.098071338305 