# vtk DataFile Version 5.1
Generated by LIGGGHTS
ASCII
DATASET POLYDATA
POINTS 1366 float
-0.0601007 0.0553429 -0.142651 -0.10954 0.0609224 -0.144024 -0.109435 0.0751376 -0.144342 
-0.0536818 0.0993034 -0.144147 -0.0538833 0.110422 -0.144902 -0.0497235 0.157599 -0.144481 
-0.0412253 0.157599 -0.144481 -0.0497235 0.166097 -0.144481 -0.0412253 0.166097 -0.144481 
-0.0221339 0.173059 -0.143349 -0.014425 0.173059 -0.143349 -0.100418 0.182586 -0.146926 
-0.0932355 0.182586 -0.146926 -0.0221339 0.180768 -0.143349 -0.014425 0.180768 -0.143349 
-0.100418 0.189768 -0.146926 -0.0932355 0.189768 -0.146926 -0.0598505 0.0651015 -0.141841 
-0.0564541 0.0781583 -0.140197 -0.0578332 0.0882077 -0.140887 -0.14526 0.119339 -0.139473 
-0.0135413 0.117971 -0.13765 -0.145459 0.129368 -0.139673 -0.049088 0.142305 -0.140407 
-0.0697576 0.185105 -0.00535811 -0.0492622 0.151418 -0.140581 -0.0399748 0.151418 -0.140581 
-0.0497235 0.157599 -0.135983 -0.0412253 0.157599 -0.135983 -0.0497235 0.166097 -0.135983 
-0.0412253 0.166097 -0.135983 -0.0221339 0.173059 -0.13564 -0.014425 0.173059 -0.13564 
-0.100418 0.182586 -0.139744 -0.0932355 0.182586 -0.139744 -0.0221339 0.180768 -0.13564 
-0.014425 0.180768 -0.13564 -0.100418 0.189768 -0.139744 -0.0932355 0.189768 -0.139744 
-0.109117 0.107825 -0.12944 -0.143122 0.134005 -0.133559 -0.0768077 0.185105 -0.00535811 
-0.0804276 0.181004 -0.00219149 -0.088005 0.181004 -0.00219149 -0.0804276 0.173427 -0.00219149 
-0.0492622 0.151418 -0.131294 -0.0399748 0.151418 -0.131294 -0.126913 0.164071 -0.131144 
-0.11881 0.164071 -0.131144 -0.0556517 0.161953 -0.131543 -0.0474166 0.161953 -0.131543 
-0.126913 0.172175 -0.131144 -0.11881 0.172175 -0.131144 -0.0556517 0.170188 -0.131543 
-0.0474166 0.170188 -0.131543 -0.0266448 0.182489 -0.130593 -0.0194626 0.182489 -0.130593 
-0.0266448 0.189671 -0.130593 -0.0194626 0.189671 -0.130593 -0.132293 0.0695542 -0.125988 
-0.144342 0.0750185 -0.126242 -0.107631 0.114707 -0.12375 -0.108188 0.123372 -0.125249 
-0.123433 0.133315 -0.121926 -0.088005 0.173427 -0.00219149 -0.0426085 0.14296 -0.00115547 
-0.0520737 0.14296 -0.00115547 -0.0768077 0.185105 -0.0124082 -0.0582307 0.138864 -0.122001 
-0.126913 0.164071 -0.123041 -0.11881 0.164071 -0.123041 -0.0556517 0.161953 -0.123308 
-0.0474166 0.161953 -0.123308 -0.126913 0.172175 -0.123041 -0.11881 0.172175 -0.123041 
-0.115172 0.17408 -0.126847 -0.107595 0.17408 -0.126847 -0.0556517 0.170188 -0.123308 
-0.0474166 0.170188 -0.123308 -0.115172 0.181658 -0.126847 -0.107595 0.181658 -0.126847 
-0.0266448 0.182489 -0.123411 -0.0194626 0.182489 -0.123411 -0.0266448 0.189671 -0.123411 
-0.0194626 0.189671 -0.123411 -0.0791228 0.0713441 -0.113234 -0.144661 0.0811126 -0.115312 
-0.0793196 0.0826924 -0.113148 -0.0427465 0.0788832 -0.113534 -0.106132 0.09203 -0.113187 
-0.106398 0.102531 -0.113452 -0.0804276 0.181004 -0.00976886 -0.0559013 0.132028 -0.00687787 
-0.0315024 0.145511 -0.114633 -0.0480434 0.192024 -0.113216 -0.142408 0.158413 -0.114089 
-0.13391 0.158413 -0.114089 -0.142408 0.166911 -0.114089 -0.13391 0.166911 -0.114089 
-0.115172 0.17408 -0.119269 -0.107595 0.17408 -0.119269 -0.115172 0.181658 -0.119269 
-0.107595 0.181658 -0.119269 -0.136458 0.187646 -0.112503 -0.136458 0.187646 -0.119421 
-0.12954 0.187646 -0.112503 -0.12954 0.187646 -0.119421 -0.0550935 0.184974 -0.113216 
-0.0480434 0.184974 -0.113216 -0.140846 0.0623703 -0.105571 -0.105923 0.0658221 -0.105794 
-0.0334385 0.0657224 -0.111896 -0.0550935 0.192024 -0.106166 -0.0480434 0.192024 -0.106166 
-0.142408 0.158413 -0.105591 -0.13391 0.158413 -0.105591 -0.142408 0.166911 -0.105591 
-0.13391 0.166911 -0.105591 -0.0550935 0.184974 -0.106166 -0.0480434 0.184974 -0.106166 
-0.0376925 0.104029 -0.103091 -0.00970756 0.114828 -0.10087 -0.00997089 0.125666 -0.101135 
-0.054923 0.127204 -0.0931533 -0.0254033 0.157816 -0.0906448 -0.0169051 0.157816 -0.0906448 
-0.0254033 0.166314 -0.0906448 -0.0169051 0.166314 -0.0906448 -0.0756513 0.186031 -0.0901458 
-0.0768306 0.185648 -0.0969013 -0.0699575 0.185711 -0.0954867 -0.0681138 0.0814165 -0.084861 
-0.0645588 0.0906626 -0.0848602 -0.0862438 0.133865 -0.0889079 -0.0559074 0.122297 -0.00696626 
-0.0260957 0.0701137 -0.00262424 -0.0802293 0.169962 -0.0851909 -0.0723888 0.169962 -0.0851909 
-0.0835786 0.181074 -0.0865521 -0.0800576 0.177515 -0.0851212 -0.0762248 0.180787 -0.0864824 
-0.0723888 0.177802 -0.0851909 -0.083407 0.187969 -0.0864824 -0.0773239 0.187675 -0.0849538 
-0.0699575 0.185711 -0.0885687 -0.051051 0.0586189 -0.0819793 -0.0645755 0.117854 -0.0767208 
-0.0697576 0.185105 -0.0124082 -0.088005 0.181004 -0.00976886 -0.0891178 0.158335 -0.0770044 
-0.0806196 0.158335 -0.0770044 -0.0254033 0.157816 -0.0821466 -0.0169051 0.157816 -0.0821466 
-0.123736 0.164181 -0.0778657 -0.115632 0.164181 -0.0778657 -0.0891178 0.166833 -0.0770044 
-0.0811868 0.165625 -0.0764474 -0.0254033 0.166314 -0.0821466 -0.0169051 0.166314 -0.0821466 
-0.123736 0.172285 -0.0778657 -0.115632 0.172285 -0.0778657 -0.079662 0.171169 -0.0779074 
-0.0723888 0.169962 -0.0773505 -0.0834866 0.180919 -0.079349 -0.0801497 0.17767 -0.0773016 
-0.0762248 0.180787 -0.0793002 -0.0723888 0.177802 -0.0773505 -0.083407 0.187969 -0.0793002 
-0.0762456 0.188035 -0.0781883 -0.115322 0.0677251 -0.0710341 -0.102122 0.097079 -0.071032 
-0.0183655 0.0949654 -0.0742426 -0.10239 0.106989 -0.0720207 -0.062916 0.117377 -0.0691784 
-0.0768755 0.192629 -0.0954867 -0.0699575 0.192629 -0.0954867 -0.0426916 0.147395 -0.072984 
-0.136458 0.194564 -0.119421 -0.0887054 0.157704 -0.0695376 -0.0806196 0.158335 -0.0685062 
-0.0427402 0.156413 -0.0730166 -0.0337158 0.156413 -0.0730166 -0.0117119 0.153811 -0.0686701 
-0.00255602 0.153811 -0.0686701 -0.123736 0.164181 -0.0697622 -0.115632 0.164181 -0.0697622 
-0.0886223 0.166149 -0.0697333 -0.0806196 0.166833 -0.0685062 -0.123736 0.172285 -0.0697622 
-0.115632 0.172285 -0.0697622 -0.084128 0.177639 -0.0720019 -0.0766822 0.177639 -0.0720019 
-0.107746 0.186935 -0.0729316 -0.100828 0.186935 -0.0729316 -0.084128 0.185085 -0.0720019 
-0.0766822 0.185085 -0.0720019 -0.0468937 0.0588712 -0.0667484 -0.11552 0.0789124 -0.0608647 
-0.0239201 0.0796997 -0.0601446 -0.12954 0.194564 -0.112503 -0.12954 0.194564 -0.119421 
-0.0427402 0.156413 -0.0639922 -0.0337158 0.156413 -0.0639922 -0.0961438 0.161501 -0.066607 
-0.088321 0.162132 -0.0655756 -0.0961438 0.169736 -0.066607 -0.0884041 0.17042 -0.0653799 
-0.084128 0.177639 -0.0645561 -0.0766822 0.177639 -0.0645561 -0.107746 0.186935 -0.0660137 
-0.100828 0.186935 -0.0660137 -0.084128 0.185085 -0.0645561 -0.0766822 0.185085 -0.0645561 
-0.11316 0.122653 -0.0585848 -0.0768755 0.192629 -0.0885687 -0.0699575 0.192629 -0.0885687 
-0.0117119 0.153811 -0.0595142 -0.00255602 0.153811 -0.0595142 -0.0961438 0.161501 -0.0583719 
-0.0879087 0.161501 -0.0583719 -0.0961438 0.169736 -0.0583719 -0.0879087 0.169736 -0.0583719 
-0.0408762 0.171894 -0.0592198 -0.0331673 0.171894 -0.0592198 -0.0408762 0.179603 -0.0592198 
-0.0331673 0.179603 -0.0592198 -0.0529626 0.0583813 -0.0495144 -0.0120979 0.0733209 -0.0520212 
-0.0825843 0.092423 -0.0480807 -0.135531 0.112734 -0.0464906 -0.141903 0.145393 -0.0470583 
-0.107746 0.193853 -0.0729316 -0.0408762 0.171894 -0.0515109 -0.0331673 0.171894 -0.0515109 
-0.0408762 0.179603 -0.0515109 -0.0331673 0.179603 -0.0515109 -0.0321897 0.0641316 -0.0406702 
-0.100828 0.193853 -0.0729316 -0.107746 0.193853 -0.0660137 -0.0342691 0.154299 -0.0414393 
-0.0256394 0.154299 -0.0414393 -0.0342691 0.162929 -0.0414393 -0.0256452 0.162862 -0.0414085 
-0.0278381 0.166369 -0.0442871 -0.0198719 0.166302 -0.0442563 -0.0278439 0.174274 -0.0442563 
-0.0198719 0.174274 -0.0442563 -0.0712411 0.0821057 -0.0345796 -0.127583 0.114346 -0.0307995 
-0.070063 0.130999 -0.0343591 -0.136458 0.194564 -0.112503 -0.0697576 0.192155 -0.00535811 
-0.104191 0.155482 -0.0325423 -0.0950352 0.155482 -0.0325423 -0.0342691 0.154299 -0.0328096 
-0.0256394 0.154299 -0.0328096 -0.0342691 0.162929 -0.0328096 -0.0256394 0.162929 -0.0328096 
-0.0278439 0.166302 -0.0362843 -0.0198719 0.166302 -0.0362843 -0.0278439 0.174274 -0.0362843 
-0.0198719 0.174274 -0.0362843 -0.0286902 0.140723 -0.0293131 -0.0550935 0.192024 -0.113216 
-0.088005 0.173427 -0.00976886 -0.0580161 0.150581 -0.028944 -0.0491232 0.150581 -0.028944 
-0.104191 0.155482 -0.0233864 -0.0950352 0.155482 -0.0233864 -0.0903886 0.154854 -0.0279288 
-0.0817588 0.154854 -0.0279288 -0.0580161 0.159474 -0.028944 -0.0491232 0.159474 -0.028944 
-0.104619 0.164051 -0.0266396 -0.0965154 0.164051 -0.0266396 -0.0903886 0.163483 -0.0279288 
-0.0817588 0.163483 -0.0279288 -0.104619 0.172154 -0.0266396 -0.0965154 0.172154 -0.0266396 
-0.095418 0.0726212 -0.0189656 -0.0945927 0.0829894 -0.0188031 -0.100828 0.193853 -0.0660137 
-0.0768077 0.192155 -0.0124082 -0.0580161 0.150581 -0.0200512 -0.0491232 0.150581 -0.0200512 
-0.0903886 0.154854 -0.0192991 -0.0817588 0.154854 -0.0192991 -0.0580161 0.159474 -0.0200512 
-0.0491232 0.159474 -0.0200512 -0.104619 0.164051 -0.018536 -0.0965154 0.164051 -0.018536 
-0.0903886 0.163483 -0.0192991 -0.0817588 0.163483 -0.0192991 -0.104619 0.172154 -0.018536 
-0.0965154 0.172154 -0.018536 -0.016291 0.0701634 -0.0109479 -0.0987791 0.133343 -0.0138632 
-0.0697576 0.192155 -0.0124082 -0.0768077 0.192155 -0.00535811 -0.0804276 0.173427 -0.00976886 
-0.0975195 0.15606 0.00169857 -0.0888897 0.15606 0.00169857 -0.0975195 0.16469 0.00169857 
-0.0888897 0.16469 0.00169857 -0.0751264 0.17341 0.00432017 -0.067549 0.17341 0.00432017 
-0.067549 0.180987 0.00432017 -0.0751264 0.180987 0.00432017 -0.106233 0.0609607 0.00841969 
-0.0241242 0.0648962 0.0145589 -0.106384 0.0731104 0.00821305 -0.145163 0.0907023 0.0142864 
-0.0871529 0.0894141 0.0137733 -0.0878429 0.100972 0.0133445 -0.0748374 0.107855 0.0109508 
-0.075105 0.118989 0.0106833 -0.0325397 0.120916 0.0146375 -0.0326858 0.130626 0.0144993 
-0.142628 0.159968 0.0123495 -0.134261 0.159968 0.0123495 -0.0975195 0.15606 0.0103283 
-0.0888897 0.15606 0.0103283 -0.142628 0.168334 0.0123495 -0.134261 0.168334 0.0123495 
[...]
POINT_DATA 1366
FIELD FieldData 8
id 1 1366 int
2648 2755 3023 3726 3744 2831 2835 2833 2837 
3248 3252 3465 3469 3250 3254 3467 3471 2901 
3296 3586 3781 3773 3801 3844 3604 2460 2464 
2832 2836 2834 2838 3249 3253 3466 3470 3251 
3255 3468 3472 3745 3823 3600 3300 3313 3315 
2461 2457 3031 3035 2967 2971 3033 3037 2969 
2973 3473 3477 3475 3479 2739 3024 3757 3785 
3814 3311 3845 3846 3599 3830 3032 3036 2968 
2972 3034 3038 3302 3306 2970 2974 3304 3308 
3474 3478 3476 3480 3180 3297 3403 3242 3685 
3727 3301 3808 3852 3597 2839 2843 2841 2845 
3303 3307 3305 3309 3637 3636 3641 3640 3591 
3595 2823 2961 3025 3594 3598 2840 2844 2842 
2846 3592 3596 3734 3766 3793 3802 2847 2851 
2849 2853 3645 3644 3648 3359 3686 3824 3787 
3134 3185 3189 3481 3187 3485 3191 3483 3463 
3649 2756 3774 3603 3312 2855 2830 2848 2852 
3039 3043 2857 2828 2850 2854 3041 3045 3186 
3190 3482 3188 3464 3184 3484 3462 3026 3716 
3711 3740 3767 3646 3650 3858 3638 2856 2829 
2562 2566 2514 2518 3040 3044 2858 2827 3042 
3046 3362 3366 3652 3656 3364 3368 2824 3243 
3404 3643 3642 2563 2559 2975 2979 2977 2966 
3363 3367 3653 3635 3365 3361 3786 3647 3651 
2515 2519 2976 2980 2978 2965 3256 3260 3258 
3247 2825 3181 3687 3758 3853 3654 3257 3261 
3259 3246 2962 3634 3655 2760 2764 2762 2766 
3138 3142 3140 3144 3405 3759 3809 3639 3589 
2522 2511 2761 2765 2763 2767 3139 3143 3141 
3137 3835 3593 3310 2651 2655 2523 2510 2768 
2772 2653 2657 3047 3051 2770 2759 3049 3029 
3135 3360 3633 3601 2652 2656 2769 2773 2654 
2650 3048 3030 2771 2758 3050 3028 3133 3815 
3590 3602 3314 2776 2780 2778 2782 3317 3321 
3323 3319 2902 2963 3182 3688 3631 3720 3746 
3775 3782 3810 2906 2910 2777 2781 2908 2912 
3147 3151 2779 2783 3149 3153 3318 3322 3194 
3198 3316 3320 3196 3200 3244 3768 3803 3788 
3831 3816 2907 2911 2784 2788 2909 2913 3148 
3152 2786 2775 3150 3154 3195 3199 3412 3416 
3490 3494 3498 3499 3502 3503 3371 3375 3197 
3201 3414 3418 3492 3496 3501 3500 3504 3505 
3373 3377 3298 3587 3760 3747 3794 3825 3836 
3854 3664 2414 2418 2785 2789 2787 2774 3413 
3417 3491 3495 3372 3376 3415 3419 3493 3497 
3374 3378 3461 3721 3783 3661 3657 2415 2419 
3056 3060 3064 3068 3058 3062 3066 3070 2826 
3136 3406 3735 3847 3605 3057 3061 3065 3069 
3072 3076 3059 3063 3067 3071 3074 3078 3506 
3510 3508 3512 3027 3728 3761 3769 3611 3609 
3073 3077 3075 3079 3507 3511 3509 3513 3795 
3859 2526 3155 3159 3157 3146 2757 3299 2662 
2666 2548 2409 2664 2668 3156 3160 3158 3145 
3420 3424 3422 3426 2964 3245 3407 3754 3607 
2465 2422 2426 2469 2473 3080 3055 3082 3053 
3421 3425 3423 3427 3776 3837 2478 3848 2663 
2667 2423 2427 2389 2378 2470 2474 2670 2674 
2665 2669 2741 2745 2914 2918 2672 2676 2743 
3081 2747 3054 2916 2920 3083 3052 3183 3588 
3736 2671 2675 2742 2746 2915 2919 2673 2677 
2744 2740 2917 2921 3817 3660 3610 2570 2574 
2431 2390 2660 2377 2572 2576 2580 2584 2531 
2535 3514 3489 3516 3487 2509 2649 3748 3804 
3606 3410 2571 2575 2573 2577 2532 2536 2982 
2986 2984 2988 3515 3488 3379 3383 3517 3486 
3370 2687 2466 2581 2585 2983 2987 3202 3206 
2985 2981 3204 3193 3381 3380 3384 3382 3369 
2586 2590 3855 3437 2588 2568 2539 2543 3203 
3207 3205 3192 3658 3662 2678 2682 2587 2569 
2903 2925 2860 2864 2680 2684 2589 2567 2540 
2544 2862 2866 3428 3432 3430 3434 3659 3663 
3690 3722 2905 2923 3729 3689 2679 2683 2686 
2661 2430 2410 2861 2865 2681 2685 2547 2527 
2688 2659 2863 2859 2922 2926 2924 2904 3429 
3433 3436 3411 3431 3435 3438 3409 3632 3612 
3608 2658 2689 3408 3439 2477 3519 3818 3849 
2869 2693 2697 3089 3093 2695 2994 2699 2998 
3091 3095 2996 3000 3388 3392 3390 3394 2927 
3161 3717 3741 3811 3838 2694 2698 2940 2944 
2932 2936 2696 2700 2934 2938 3097 3101 3090 
3094 2942 3330 2946 3334 3099 3103 3092 3096 
3332 3336 3389 3393 3387 3391 3762 3789 2900 
2871 2941 2933 2937 2945 2935 2939 3098 3102 
2995 2999 2943 3331 2947 3335 3100 3104 2997 
3001 3333 3337 3524 3528 3526 3530 3730 3749 
3860 3702 2873 2877 2598 2602 2875 2879 3266 
3270 3268 3272 3525 3529 3527 3531 2867 3440 
3665 2898 2592 3699 3695 2437 2441 2874 2878 
2599 2603 2876 2880 3165 3169 3167 3171 3212 
3216 3267 3271 3214 3218 3269 3273 3737 3770 
3796 2623 3839 3698 2438 2442 2881 2885 2883 
2887 3166 3170 3168 3164 3213 3217 3215 3219 
2748 2989 3712 2882 2886 2884 2888 3105 3109 
3107 3111 2591 3208 3691 3731 3755 3784 3777 
3819 3812 3840 3856 2593 2604 2608 2445 2434 
2554 2558 2606 2610 3106 3110 3274 3278 3338 
3342 3108 3112 3276 3265 3344 3340 3446 3450 
3448 3452 2481 2749 3162 3385 3805 3826 2622 
2806 2605 2609 2396 2400 2446 2433 2555 2551 
2607 2611 3275 3279 3343 3339 3220 3224 3277 
3264 3345 3341 3447 3451 3222 3211 3449 3445 
3262 3441 3666 2497 2804 2701 2705 2703 2692 
3346 3347 3329 3350 3221 3225 3349 3348 3327 
3328 3223 3210 3386 3518 3832 2791 2616 2702 
2706 2614 2618 2704 2691 3696 3700 3850 2621 
2613 2617 2793 2797 2615 2619 2795 2799 3697 
3701 3813 3827 3841 2485 2498 2794 2798 2889 
2893 2796 2800 2891 2895 2482 2750 3763 3778 
3797 2802 2595 2489 2493 2890 2894 2892 2896 
2483 2751 3613 3842 2620 2486 2490 2494 2948 
2952 3002 3006 2950 2930 3010 3014 3004 3008 
3012 2992 3713 2949 2931 3003 3007 2951 2929 
3011 2993 3113 3088 3005 3009 3013 2991 3115 
3086 3114 3087 3116 3085 3532 3536 3616 3620 
3534 3523 3618 3622 2801 2805 2897 2872 2803 
2792 2899 2870 3533 3537 3617 3621 3535 3522 
3619 3615 3263 3324 3117 3614 3779 3806 2711 
2715 2713 2717 3544 3548 3546 3550 2790 3084 
3714 3738 3764 3790 3820 3851 3163 2712 2716 
2714 2718 3545 3549 3547 3551 3667 3692 3723 
3732 3750 3771 3828 2990 3280 2690 2928 3442 
3718 3742 3791 3861 3677 2629 2633 3552 3556 
3560 3564 3554 3558 3562 3566 3715 3833 3674 
3673 2630 2634 3352 3356 3553 3557 3561 3358 
3565 3555 3559 3563 3567 3739 3756 3751 3807 
2954 2958 3173 3177 2956 2960 3175 3179 3353 
3357 3354 3355 3351 3624 3672 3671 3629 3628 
3675 3676 3780 2719 2723 2721 2725 2955 2959 
3174 3178 3119 3123 2957 2953 3176 3172 3121 
3125 3458 3454 3625 3456 3460 3668 3834 3630 
3626 2720 2724 2820 2822 2722 2726 2637 2641 
3016 3020 3120 3124 3018 3022 3122 3126 3459 
3455 3679 3683 3457 3453 3520 3719 3798 3821 
3862 2818 3733 3693 2638 2642 3017 3021 3019 
3015 3680 3684 2868 3209 3743 3752 3293 3295 
3325 3765 3843 3291 2807 2452 2456 3396 3400 
3398 3402 3704 3708 3799 3857 3678 3627 3623 
3228 3232 3397 3401 3568 3572 3230 3234 3399 
3395 3570 3574 3705 3709 3443 3792 3829 2453 
2449 2735 2710 2727 2731 3444 2754 2737 2708 
2729 2733 3282 3286 3229 3233 3284 3569 3288 
3573 3576 3580 3231 3235 3584 3541 3571 3575 
3578 3582 3543 3539 2550 2484 2752 3822 2728 
2732 3281 3292 2730 2734 3236 3240 3283 3287 
3238 3227 3285 3289 3577 3581 3585 3540 3579 
3583 3542 3538 2753 3772 2736 2709 2738 2707 
3237 3241 3239 3226 3521 3753 3800 3681 3670 
2643 2647 2504 2508 2645 2625 3326 3694 3682 
3669 2644 2626 2505 2501 2817 2646 2821 2809 
2813 2624 2819 2808 2811 2815 3127 3131 3129 
3118 3724 3725 2810 2814 2812 2816 3128 3132 
3290 3294 3130 3703 3706 3710 3707 
type 1 1366 int
2 2 2 2 2 2 2 2 2 
2 2 2 2 2 2 2 2 2 
2 2 2 2 2 2 2 2 2 
2 2 2 2 2 2 2 2 2 
2 2 2 2 2 2 2 2 2 
2 2 2 2 2 2 2 2 2 
2 2 2 2 2 2 2 2 2 
2 2 2 2 2 2 2 2 2 
2 2 2 2 2 2 2 2 2 
2 2 2 2 2 2 2 2 2 
2 2 2 2 2 2 2 2 2 
2 2 2 2 2 2 2 2 2 
2 2 2 2 2 2 2 2 2 
2 2 2 2 2 2 2 2 2 
2 2 2 2 2 2 2 2 2 
2 2 2 2 2 2 2 2 2 
2 2 2 2 2 2 2 2 2 
2 2 2 2 2 2 2 2 2 
2 2 2 2 2 2 2 2 2 
2 2 2 2 2 2 2 2 2 
2 2 2 2 2 2 2 2 2 
2 2 2 2 2 2 2 2 2 
2 2 2 2 2 2 2 2 2 
2 2 2 2 2 2 2 2 2 
2 2 2 2 2 2 2 2 2 
2 2 2 2 2 2 2 2 2 
2 2 2 2 2 2 2 2 2 
2 2 2 2 2 2 2 2 2 
2 2 2 2 2 2 2 2 2 
2 2 2 2 2 2 2 2 2 
2 2 2 2 2 2 2 2 2 
2 2 2 2 2 2 2 2 2 
2 2 2 2 2 2 2 2 2 
2 2 2 2 2 2 2 2 2 
2 2 2 2 2 2 2 2 2 
2 2 2 2 2 2 2 2 2 
2 2 2 2 2 2 2 2 2 
2 2 2 2 2 2 2 2 2 
2 2 2 2 2 2 2 2 2 
2 2 2 2 2 2 2 2 2 
2 2 2 2 2 2 2 2 2 
2 2 2 2 2 2 2 2 2 
2 2 2 2 2 2 2 2 2 
2 2 2 2 2 2 2 2 2 
2 2 2 2 2 2 2 2 2 
2 2 2 2 2 2 2 2 2 
2 2 2 2 2 2 2 2 2 
2 2 2 2 2 2 2 2 2 
2 2 2 2 2 2 2 2 2 
2 2 2 2 2 2 2 2 2 
2 2 2 2 2 2 2 2 2 
2 2 2 2 2 2 2 2 2 
2 2 2 2 2 2 2 2 2 
2 2 2 2 2 2 2 2 2 
2 2 2 2 2 2 2 2 2 
2 2 2 2 2 2 2 2 2 
2 2 2 2 2 2 2 2 2 
2 2 2 2 2 2 2 2 2 
2 2 2 2 2 2 2 2 2 
2 2 2 2 2 2 2 2 2 
2 2 2 2 2 2 2 2 2 
2 2 2 2 2 2 2 2 2 
2 2 2 2 2 2 2 2 2 
2 2 2 2 2 2 2 2 2 
2 2 2 2 2 2 2 2 2 
2 2 2 2 2 2 2 2 2 
2 2 2 2 2 2 2 2 2 
2 2 2 2 2 2 2 2 2 
2 2 2 2 2 2 2 2 2 
2 2 2 2 2 2 2 2 2 
2 2 2 2 2 2 2 2 2 
2 2 2 2 2 2 2 2 2 
2 2 2 2 2 2 2 2 2 
2 2 2 2 2 2 2 2 2 
2 2 2 2 2 2 2 2 2 
2 2 2 2 2 2 2 2 2 
2 2 2 2 2 2 2 2 2 
2 2 2 2 2 2 2 2 2 
2 2 2 2 2 2 2 2 2 
2 2 2 2 2 2 2 2 2 
2 2 2 2 2 2 2 2 2 
2 2 2 2 2 2 2 2 2 
2 2 2 2 2 2 2 2 2 
2 2 2 2 2 2 2 2 2 
2 2 2 2 2 2 2 2 2 
2 2 2 2 2 2 2 2 2 
2 2 2 2 2 2 2 2 2 
2 2 2 2 2 2 2 2 2 
2 2 2 2 2 2 2 2 2 
2 2 2 2 2 2 2 2 2 
2 2 2 2 2 2 2 2 2 
2 2 2 2 2 2 2 2 2 
2 2 2 2 2 2 2 2 2 
2 2 2 2 2 2 2 2 2 
2 2 2 2 2 2 2 2 2 
2 2 2 2 2 2 2 2 2 
2 2 2 2 2 2 2 2 2 
2 2 2 2 2 2 2 2 2 
2 2 2 2 2 2 2 2 2 
2 2 2 2 2 2 2 2 2 
2 2 2 2 2 2 2 2 2 
2 2 2 2 2 2 2 2 2 
2 2 2 2 2 2 2 2 2 
2 2 2 2 2 2 2 2 2 
2 2 2 2 2 2 2 2 2 
2 2 2 2 2 2 2 2 2 
2 2 2 2 2 2 2 2 2 
2 2 2 2 2 2 2 2 2 
2 2 2 2 2 2 2 2 2 
2 2 2 2 2 2 2 2 2 
2 2 2 2 2 2 2 2 2 
2 2 2 2 2 2 2 2 2 
2 2 2 2 2 2 2 2 2 
2 2 2 2 2 2 2 2 2 
2 2 2 2 2 2 2 2 2 
2 2 2 2 2 2 2 2 2 
2 2 2 2 2 2 2 2 2 
2 2 2 2 2 2 2 2 2 
2 2 2 2 2 2 2 2 2 
2 2 2 2 2 2 2 2 2 
2 2 2 2 2 2 2 2 2 
2 2 2 2 2 2 2 2 2 
2 2 2 2 2 2 2 2 2 
2 2 2 2 2 2 2 2 2 
2 2 2 2 2 2 2 2 2 
2 2 2 2 2 2 2 2 2 
2 2 2 2 2 2 2 2 2 
2 2 2 2 2 2 2 2 2 
2 2 2 2 2 2 2 2 2 
2 2 2 2 2 2 2 2 2 
2 2 2 2 2 2 2 2 2 
2 2 2 2 2 2 2 2 2 
2 2 2 2 2 2 2 2 2 
2 2 2 2 2 2 2 2 2 
2 2 2 2 2 2 2 2 2 
2 2 2 2 2 2 2 2 2 
2 2 2 2 2 2 2 2 2 
2 2 2 2 2 2 2 2 2 
2 2 2 2 2 2 2 2 2 
2 2 2 2 2 2 2 2 2 
2 2 2 2 2 2 2 2 2 
2 2 2 2 2 2 2 2 2 
2 2 2 2 2 2 2 2 2 
2 2 2 2 2 2 2 2 2 
2 2 2 2 2 2 2 2 2 
2 2 2 2 2 2 2 2 2 
2 2 2 2 2 2 2 2 2 
2 2 2 2 2 2 2 2 2 
2 2 2 2 2 2 2 2 2 
2 2 2 2 2 2 2 2 2 
2 2 2 2 2 2 2 2 2 
2 2 2 2 2 2 2 
i 3 1366 int
0 0 0 0 0 0 0 0 0 
0 0 0 0 0 0 0 0 0 
0 0 0 0 0 0 0 0 0 
0 0 0 0 0 0 0 0 0 
0 0 0 0 0 0 0 0 0 
0 0 0 0 0 0 0 0 0 
0 0 0 0 0 0 0 0 0 
0 0 0 0 0 0 0 0 0 
0 0 0 0 0 0 0 0 0 
0 0 0 0 0 0 0 0 0 
0 0 0 0 0 0 0 0 0 
0 0 0 0 0 0 0 0 0 
0 0 0 0 0 0 0 0 0 
0 0 0 0 0 0 0 0 0 
0 0 0 0 0 0 0 0 0 
0 0 0 0 0 0 0 0 0 
0 0 0 0 0 0 0 0 0 
0 0 0 0 0 0 0 0 0 
0 0 0 0 0 0 0 0 0 
0 0 0 0 0 0 0 0 0 
0 0 0 0 0 0 0 0 0 
0 0 0 0 0 0 0 0 0 
0 0 0 0 0 0 0 0 0 
0 0 0 0 0 0 0 0 0 
0 0 0 0 0 0 0 0 0 
0 0 0 0 0 0 0 0 0 
0 0 0 0 0 0 0 0 0 
0 0 0 0 0 0 0 0 0 
0 0 0 0 0 0 0 0 0 
0 0 0 0 0 0 0 0 0 
0 0 0 0 0 0 0 0 0 
0 0 0 0 0 0 0 0 0 
0 0 0 0 0 0 0 0 0 
0 0 0 0 0 0 0 0 0 
0 0 0 0 0 0 0 0 0 
0 0 0 0 0 0 0 0 0 
0 0 0 0 0 0 0 0 0 
0 0 0 0 0 0 0 0 0 
0 0 0 0 0 0 0 0 0 
0 0 0 0 0 0 0 0 0 
0 0 0 0 0 0 0 0 0 
0 0 0 0 0 0 0 0 0 
0 0 0 0 0 0 0 0 0 
0 0 0 0 0 0 0 0 0 
0 0 0 0 0 0 0 0 0 
0 0 0 0 0 0 0 0 0 
0 0 0 0 0 0 0 0 0 
0 0 0 0 0 0 0 0 0 
0 0 0 0 0 0 0 0 0 
0 0 0 0 0 0 0 0 0 
0 0 0 0 0 0 0 0 0 
0 0 0 0 0 0 0 0 0 
0 0 0 0 0 0 0 0 0 
0 0 0 0 0 0 0 0 0 
0 0 0 0 0 0 0 0 0 
0 0 0 0 0 0 0 0 0 
0 0 0 0 0 0 0 0 0 
0 0 0 0 0 0 0 0 0 
0 0 0 0 0 0 0 0 0 
0 0 0 0 0 0 0 0 0 
0 0 0 0 0 0 0 0 0 
0 0 0 0 0 0 0 0 0 
0 0 0 0 0 0 0 0 0 
0 0 0 0 0 0 0 0 0 
0 0 0 0 0 0 0 0 0 
0 0 0 0 0 0 0 0 0 
0 0 0 0 0 0 0 0 0 
0 0 0 0 0 0 0 0 0 
0 0 0 0 0 0 0 0 0 
0 0 0 0 0 0 0 0 0 
0 0 0 0 0 0 0 0 0 
0 0 0 0 0 0 0 0 0 
0 0 0 0 0 0 0 0 0 
0 0 0 0 0 0 0 0 0 
0 0 0 0 0 0 0 0 0 
0 0 0 0 0 0 0 0 0 
0 0 0 0 0 0 0 0 0 
0 0 0 0 0 0 0 0 0 
0 0 0 0 0 0 0 0 0 
0 0 0 0 0 0 0 0 0 
0 0 0 0 0 0 0 0 0 
0 0 0 0 0 0 0 0 0 
0 0 0 0 0 0 0 0 0 
0 0 0 0 0 0 0 0 0 
0 0 0 0 0 0 0 0 0 
0 0 0 0 0 0 0 0 0 
0 0 0 0 0 0 0 0 0 
0 0 0 0 0 0 0 0 0 
0 0 0 0 0 0 0 0 0 
0 0 0 0 0 0 0 0 0 
0 0 0 0 0 0 0 0 0 
0 0 0 0 0 0 0 0 0 
0 0 0 0 0 0 0 0 0 
0 0 0 0 0 0 0 0 0 
0 0 0 0 0 0 0 0 0 
0 0 0 0 0 0 0 0 0 
0 0 0 0 0 0 0 0 0 
0 0 0 0 0 0 0 0 0 
0 0 0 0 0 0 0 0 0 
0 0 0 0 0 0 0 0 0 
0 0 0 0 0 0 0 0 0 
0 0 0 0 0 0 0 0 0 
0 0 0 0 0 0 0 0 0 
0 0 0 0 0 0 0 0 0 
0 0 0 0 0 0 0 0 0 
0 0 0 0 0 0 0 0 0 
0 0 0 0 0 0 0 0 0 
0 0 0 0 0 0 0 0 0 
0 0 0 0 0 0 0 0 0 
0 0 0 0 0 0 0 0 0 
0 0 0 0 0 0 0 0 0 
0 0 0 0 0 0 0 0 0 
0 0 0 0 0 0 0 0 0 
0 0 0 0 0 0 0 0 0 
0 0 0 0 0 0 0 0 0 
0 0 0 0 0 0 0 0 0 
0 0 0 0 0 0 0 0 0 
0 0 0 0 0 0 0 0 0 
0 0 0 0 0 0 0 0 0 
0 0 0 0 0 0 0 0 0 
0 0 0 0 0 0 0 0 0 
0 0 0 0 0 0 0 0 0 
0 0 0 0 0 0 0 0 0 
0 0 0 0 0 0 0 0 0 
0 0 0 0 0 0 0 0 0 
0 0 0 0 0 0 0 0 0 
0 0 0 0 0 0 0 0 0 
0 0 0 0 0 0 0 0 0 
0 0 0 0 0 0 0 0 0 
0 0 0 0 0 0 0 0 0 
0 0 0 0 0 0 0 0 0 
0 0 0 0 0 0 0 0 0 
0 0 0 0 0 0 0 0 0 
0 0 0 0 0 0 0 0 0 
0 0 0 0 0 0 0 0 0 
0 0 0 0 0 0 0 0 0 
0 0 0 0 0 0 0 0 0 
0 0 0 0 0 0 0 0 0 
0 0 0 0 0 0 0 0 0 
0 0 0 0 0 0 0 0 0 
0 0 0 0 0 0 0 0 0 
0 0 0 0 0 0 0 0 0 
0 0 0 0 0 0 0 0 0 
0 0 0 0 0 0 0 0 0 
0 0 0 0 0 0 0 0 0 
0 0 0 0 0 0 0 0 0 
0 0 0 0 0 0 0 0 0 
0 0 0 0 0 0 0 0 0 
0 0 0 0 0 0 0 0 0 
0 0 0 0 0 0 0 0 0 
0 0 0 0 0 0 0 0 0 
0 0 0 0 0 0 0 0 0 
0 0 0 0 0 0 0 0 0 
0 0 0 0 0 0 0 0 0 
0 0 0 0 0 0 0 0 0 
0 0 0 0 0 0 0 0 0 
0 0 0 0 0 0 0 0 0 
0 0 0 0 0 0 0 0 0 
0 0 0 0 0 0 0 0 0 
0 0 0 0 0 0 0 0 0 
0 0 0 0 0 0 0 0 0 
0 0 0 0 0 0 0 0 0 
0 0 0 0 0 0 0 0 0 
0 0 0 0 0 0 0 0 0 
0 0 0 0 0 0 0 0 0 
0 0 0 0 0 0 0 0 0 
0 0 0 0 0 0 0 0 0 
0 0 0 0 0 0 0 0 0 
0 0 0 0 0 0 0 0 0 
0 0 0 0 0 0 0 0 0 
0 0 0 0 0 0 0 0 0 
0 0 0 0 0 0 0 0 0 
0 0 0 0 0 0 0 0 0 
0 0 0 0 0 0 0 0 0 
0 0 0 0 0 0 0 0 0 
0 0 0 0 0 0 0 0 0 
0 0 0 0 0 0 0 0 0 
0 0 0 0 0 0 0 0 0 
0 0 0 0 0 0 0 0 0 
0 0 0 0 0 0 0 0 0 
0 0 0 0 0 0 0 0 0 
0 0 0 0 0 0 0 0 0 
0 0 0 0 0 0 0 0 0 
0 0 0 0 0 0 0 0 0 
0 0 0 0 0 0 0 0 0 
0 0 0 0 0 0 0 0 0 
0 0 0 0 0 0 0 0 0 
0 0 0 0 0 0 0 0 0 
0 0 0 0 0 0 0 0 0 
0 0 0 0 0 0 0 0 0 
0 0 0 0 0 0 0 0 0 
0 0 0 0 0 0 0 0 0 
0 0 0 0 0 0 0 0 0 
0 0 0 0 0 0 0 0 0 
0 0 0 0 0 0 0 0 0 
0 0 0 0 0 0 0 0 0 
0 0 0 0 0 0 0 0 0 
0 0 0 0 0 0 0 0 0 
0 0 0 0 0 0 0 0 0 
0 0 0 0 0 0 0 0 0 
0 0 0 0 0 0 0 0 0 
0 0 0 0 0 0 0 0 0 
0 0 0 0 0 0 0 0 0 
0 0 0 0 0 0 0 0 0 
0 0 0 0 0 0 0 0 0 
0 0 0 0 0 0 0 0 0 
0 0 0 0 0 0 0 0 0 
0 0 0 0 0 0 0 0 0 
0 0 0 0 0 0 0 0 0 
0 0 0 0 0 0 0 0 0 
0 0 0 0 0 0 0 0 0 
0 0 0 0 0 0 0 0 0 
0 0 0 0 0 0 0 0 0 
0 0 0 0 0 0 0 0 0 
0 0 0 0 0 0 0 0 0 
0 0 0 0 0 0 0 0 0 
0 0 0 0 0 0 0 0 0 
0 0 0 0 0 0 0 0 0 
0 0 0 0 0 0 0 0 0 
0 0 0 0 0 0 0 0 0 
0 0 0 0 0 0 0 0 0 
0 0 0 0 0 0 0 0 0 
0 0 0 0 0 0 0 0 0 
0 0 0 0 0 0 0 0 0 
0 0 0 0 0 0 0 0 0 
0 0 0 0 0 0 0 0 0 
0 0 0 0 0 0 0 0 0 
0 0 0 0 0 0 0 0 0 
0 0 0 0 0 0 0 0 0 
0 0 0 0 0 0 0 0 0 
0 0 0 0 0 0 0 0 0 
0 0 0 0 0 0 0 0 0 
0 0 0 0 0 0 0 0 0 
0 0 0 0 0 0 0 0 0 
0 0 0 0 0 0 0 0 0 
0 0 0 0 0 0 0 0 0 
0 0 0 0 0 0 0 0 0 
0 0 0 0 0 0 0 0 0 
0 0 0 0 0 0 0 0 0 
0 0 0 0 0 0 0 0 0 
0 0 0 0 0 0 0 0 0 
0 0 0 0 0 0 0 0 0 
0 0 0 0 0 0 0 0 0 
0 0 0 0 0 0 0 0 0 
0 0 0 0 0 0 0 0 0 
0 0 0 0 0 0 0 0 0 
0 0 0 0 0 0 0 0 0 
0 0 0 0 0 0 0 0 0 
0 0 0 0 0 0 0 0 0 
0 0 0 0 0 0 0 0 0 
0 0 0 0 0 0 0 0 0 
0 0 0 0 0 0 0 0 0 
0 0 0 0 0 0 0 0 0 
0 0 0 0 0 0 0 0 0 
0 0 0 0 0 0 0 0 0 
0 0 0 0 0 0 0 0 0 
0 0 0 0 0 0 0 0 0 
0 0 0 0 0 0 0 0 0 
0 0 0 0 0 0 0 0 0 
0 0 0 0 0 0 0 0 0 
0 0 0 0 0 0 0 0 0 
0 0 0 0 0 0 0 0 0 
0 0 0 0 0 0 0 0 0 
0 0 0 0 0 0 0 0 0 
0 0 0 0 0 0 0 0 0 
0 0 0 0 0 0 0 0 0 
0 0 0 0 0 0 0 0 0 
0 0 0 0 0 0 0 0 0 
0 0 0 0 0 0 0 0 0 
0 0 0 0 0 0 0 0 0 
0 0 0 0 0 0 0 0 0 
0 0 0 0 0 0 0 0 0 
0 0 0 0 0 0 0 0 0 
0 0 0 0 0 0 0 0 0 
0 0 0 0 0 0 0 0 0 
0 0 0 0 0 0 0 0 0 
0 0 0 0 0 0 0 0 0 
0 0 0 0 0 0 0 0 0 
0 0 0 0 0 0 0 0 0 
0 0 0 0 0 0 0 0 0 
0 0 0 0 0 0 0 0 0 
0 0 0 0 0 0 0 0 0 
0 0 0 0 0 0 0 0 0 
0 0 0 0 0 0 0 0 0 
0 0 0 0 0 0 0 0 0 
0 0 0 0 0 0 0 0 0 
0 0 0 0 0 0 0 0 0 
0 0 0 0 0 0 0 0 0 
0 0 0 0 0 0 0 0 0 
0 0 0 0 0 0 0 0 0 
0 0 0 0 0 0 0 0 0 
0 0 0 0 0 0 0 0 0 
0 0 0 0 0 0 0 0 0 
0 0 0 0 0 0 0 0 0 
0 0 0 0 0 0 0 0 0 
0 0 0 0 0 0 0 0 0 
0 0 0 0 0 0 0 0 0 
0 0 0 0 0 0 0 0 0 
0 0 0 0 0 0 0 0 0 
0 0 0 0 0 0 0 0 0 
0 0 0 0 0 0 0 0 0 
0 0 0 0 0 0 0 0 0 
0 0 0 0 0 0 0 0 0 
0 0 0 0 0 0 0 0 0 
0 0 0 0 0 0 0 0 0 
0 0 0 0 0 0 0 0 0 
0 0 0 0 0 0 0 0 0 
0 0 0 0 0 0 0 0 0 
0 0 0 0 0 0 0 0 0 
0 0 0 0 0 0 0 0 0 
0 0 0 0 0 0 0 0 0 
0 0 0 0 0 0 0 0 0 
0 0 0 0 0 0 0 0 0 
0 0 0 0 0 0 0 0 0 
0 0 0 0 0 0 0 0 0 
0 0 0 0 0 0 0 0 0 
0 0 0 0 0 0 0 0 0 
0 0 0 0 0 0 0 0 0 
0 0 0 0 0 0 0 0 0 
0 0 0 0 0 0 0 0 0 
0 0 0 0 0 0 0 0 0 
0 0 0 0 0 0 0 0 0 
0 0 0 0 0 0 0 0 0 
0 0 0 0 0 0 0 0 0 
0 0 0 0 0 0 0 0 0 
0 0 0 0 0 0 0 0 0 
0 0 0 0 0 0 0 0 0 
0 0 0 0 0 0 0 0 0 
0 0 0 0 0 0 0 0 0 
0 0 0 0 0 0 0 0 0 
0 0 0 0 0 0 0 0 0 
0 0 0 0 0 0 0 0 0 
0 0 0 0 0 0 0 0 0 
0 0 0 0 0 0 0 0 0 
0 0 0 0 0 0 0 0 0 
0 0 0 0 0 0 0 0 0 
0 0 0 0 0 0 0 0 0 
0 0 0 0 0 0 0 0 0 
0 0 0 0 0 0 0 0 0 
0 0 0 0 0 0 0 0 0 
0 0 0 0 0 0 0 0 0 
0 0 0 0 0 0 0 0 0 
0 0 0 0 0 0 0 0 0 
0 0 0 0 0 0 0 0 0 
0 0 0 0 0 0 0 0 0 
0 0 0 0 0 0 0 0 0 
0 0 0 0 0 0 0 0 0 
0 0 0 0 0 0 0 0 0 
0 0 0 0 0 0 0 0 0 
0 0 0 0 0 0 0 0 0 
0 0 0 0 0 0 0 0 0 
0 0 0 0 0 0 0 0 0 
0 0 0 0 0 0 0 0 0 
0 0 0 0 0 0 0 0 0 
0 0 0 0 0 0 0 0 0 
0 0 0 0 0 0 0 0 0 
0 0 0 0 0 0 0 0 0 
0 0 0 0 0 0 0 0 0 
0 0 0 0 0 0 0 0 0 
0 0 0 0 0 0 0 0 0 
0 0 0 0 0 0 0 0 0 
0 0 0 0 0 0 0 0 0 
0 0 0 0 0 0 0 0 0 
0 0 0 0 0 0 0 0 0 
0 0 0 0 0 0 0 0 0 
0 0 0 0 0 0 0 0 0 
0 0 0 0 0 0 0 0 0 
0 0 0 0 0 0 0 0 0 
0 0 0 0 0 0 0 0 0 
0 0 0 0 0 0 0 0 0 
0 0 0 0 0 0 0 0 0 
0 0 0 0 0 0 0 0 0 
0 0 0 0 0 0 0 0 0 
0 0 0 0 0 0 0 0 0 
0 0 0 0 0 0 0 0 0 
0 0 0 0 0 0 0 0 0 
0 0 0 0 0 0 0 0 0 
0 0 0 0 0 0 0 0 0 
0 0 0 0 0 0 0 0 0 
0 0 0 0 0 0 0 0 0 
0 0 0 0 0 0 0 0 0 
0 0 0 0 0 0 0 0 0 
0 0 0 0 0 0 0 0 0 
0 0 0 0 0 0 0 0 0 
0 0 0 0 0 0 0 0 0 
0 0 0 0 0 0 0 0 0 
0 0 0 0 0 0 0 0 0 
0 0 0 0 0 0 0 0 0 
0 0 0 0 0 0 0 0 0 
0 0 0 0 0 0 0 0 0 
0 0 0 0 0 0 0 0 0 
0 0 0 0 0 0 0 0 0 
0 0 0 0 0 0 0 0 0 
0 0 0 0 0 0 0 0 0 
0 0 0 0 0 0 0 0 0 
0 0 0 0 0 0 0 0 0 
0 0 0 0 0 0 0 0 0 
0 0 0 0 0 0 0 0 0 
0 0 0 0 0 0 0 0 0 
0 0 0 0 0 0 0 0 0 
0 0 0 0 0 0 0 0 0 
0 0 0 0 0 0 0 0 0 
0 0 0 0 0 0 0 0 0 
0 0 0 0 0 0 0 0 0 
0 0 0 0 0 0 0 0 0 
0 0 0 0 0 0 0 0 0 
0 0 0 0 0 0 0 0 0 
0 0 0 0 0 0 0 0 0 
0 0 0 0 0 0 0 0 0 
0 0 0 0 0 0 0 0 0 
0 0 0 0 0 0 0 0 0 
0 0 0 0 0 0 0 0 0 
0 0 0 0 0 0 0 0 0 
0 0 0 0 0 0 0 0 0 
0 0 0 0 0 0 0 0 0 
0 0 0 0 0 0 0 0 0 
0 0 0 0 0 0 0 0 0 
0 0 0 0 0 0 0 0 0 
0 0 0 0 0 0 0 0 0 
0 0 0 0 0 0 0 0 0 
0 0 0 0 0 0 0 0 0 
0 0 0 0 0 0 0 0 0 
0 0 0 0 0 0 0 0 0 
0 0 0 0 0 0 0 0 0 
0 0 0 0 0 0 0 0 0 
0 0 0 0 0 0 0 0 0 
0 0 0 0 0 0 0 0 0 
0 0 0 0 0 0 0 0 0 
0 0 0 0 0 0 0 0 0 
0 0 0 0 0 0 0 0 0 
0 0 0 0 0 0 0 0 0 
0 0 0 0 0 0 0 0 0 
0 0 0 0 0 0 0 0 0 
0 0 0 0 0 0 0 0 0 
0 0 0 0 0 0 0 0 0 
0 0 0 0 0 0 0 0 0 
0 0 0 0 0 0 0 0 0 
0 0 0 0 0 0 0 0 0 
0 0 0 0 0 0 0 0 0 
0 0 0 0 0 0 0 0 0 
0 0 0 0 0 0 0 0 0 
0 0 0 0 0 0 0 0 0 
0 0 0 0 0 0 0 0 0 
0 0 0 0 0 0 0 0 0 
0 0 0 0 0 0 0 0 0 
0 0 0 0 0 0 0 0 0 
0 0 0 0 0 0 0 0 0 
0 0 0 0 0 0 0 0 0 
0 0 0 0 0 0 0 0 0 
0 0 0 0 0 0 0 0 0 
0 0 0 0 0 0 0 0 0 
0 0 0 0 0 0 0 0 0 
0 0 0 0 0 0 0 0 0 
0 0 0 0 0 0 0 0 0 
0 0 0 0 0 0 0 0 0 
0 0 0 
v 3 1366 double
-0.001154084488 0.26147867706 0.0019795652461 0 -0.97759015298 0.03371227104 0.0045440372068 -0.9164359227 0.033712270954 
0 -1.0278696845 0 0 -0.98606515775 -0.013934842249 -0.027869684498 -1.0278696845 -0.027869684498 
0.027869684498 -1.0278696845 -0.027869684498 -0.027869684498 -0.9721303155 -0.027869684498 0.027869684498 -0.9721303155 -0.027869684498 
-0.027869684498 -1.0278696845 -0.027869684498 0.027869684498 -1.0278696845 -0.027869684498 -0.027869684498 -1.0278696845 -0.027869684498 
0.027869684498 -1.0278696845 -0.027869684498 -0.027869684498 -0.9721303155 -0.027869684498 0.027869684498 -0.9721303155 -0.027869684498 
-0.027869684498 -0.9721303155 -0.027869684498 0.027869684498 -0.9721303155 -0.027869684498 0.0072020327787 -0.84230945256 -0.0001736401283 
0.0097446490414 -0.99384866778 0 -0.0069674211245 -0.97909773663 -0.0069674211245 0 -1.0278696845 0 
0 -1 0 0 -1 0 0 -1 0 
0.027869684498 -1.0278696845 0.027869684498 -0.027869684498 -0.9721303155 -0.027869684498 0.027869684498 -0.9721303155 -0.027869684498 
-0.027869684498 -1.0278696845 0.027869684498 0.027869684498 -1.0278696845 0.027869684498 -0.027869684498 -0.9721303155 0.027869684498 
0.027869684498 -0.9721303155 0.027869684498 -0.027869684498 -1.0278696845 0.027869684498 0.027869684498 -1.0278696845 0.027869684498 