# vtk DataFile Version 5.1
Generated by LIGGGHTS
ASCII
DATASET POLYDATA
POINTS 400 float
-0.140547 0.0554777 -0.1434 -0.116694 0.0550816 -0.143751 -0.0960753 0.0587254 -0.145015 
-0.0672408 0.0553116 -0.144002 -0.0864708 0.068801 -0.144983 -0.144086 0.0697844 -0.144793 
-0.0756009 0.0727457 -0.14494 -0.0506086 0.0846761 -0.144655 -0.111511 0.0623825 -0.139044 
-0.0232825 0.0673552 -0.141875 -0.130802 0.0726961 -0.14011 -0.113137 0.0765891 -0.135665 
-0.0319367 0.0789918 -0.136613 -0.0233578 0.0892491 -0.134821 -0.144722 0.0589973 -0.135026 
-0.132104 0.0569298 -0.132732 -0.121102 0.0550102 -0.131932 -0.101466 0.0570081 -0.127896 
-0.0672209 0.0582211 -0.13327 -0.0492418 0.0582261 -0.131244 -0.0555125 0.0675531 -0.132384 
-0.102705 0.0716596 -0.130491 -0.00450635 0.0704341 -0.133656 -0.127336 0.0969335 -0.131567 
-0.144152 0.0566648 -0.123938 -0.0398759 0.060865 -0.123047 -0.055108 0.0692417 -0.119985 
-0.0104399 0.069205 -0.124202 -0.113546 0.0593872 -0.116589 -0.0157427 0.0551668 -0.113746 
-0.00760711 0.0620154 -0.115366 -0.103059 0.0580022 -0.109889 -0.089433 0.0597692 -0.108081 
-0.0377826 0.0596907 -0.110573 -0.0261993 0.0568678 -0.107474 -0.00285214 0.070441 -0.111477 
-0.0802094 0.077037 -0.112383 -0.0589917 0.071995 -0.105146 -0.0605626 0.0892706 -0.106558 
-0.0811789 0.116092 -0.111595 -0.0325028 0.0744691 -0.101926 -0.0174301 0.0699492 -0.101296 
-0.0376925 0.118576 -0.103091 -0.0876629 0.075758 -0.0969667 -0.0426996 0.0738404 -0.0910739 
-0.0251978 0.0794681 -0.0973131 -0.109911 0.0566814 -0.0830601 -0.0984249 0.0595761 -0.0860454 
-0.068974 0.0870614 -0.0869969 -0.0862438 0.108977 -0.0889079 -0.051051 0.136691 -0.0829319 
-0.104635 0.149556 -0.0854866 -0.0113094 0.0595071 -0.0774577 -0.127469 0.0711213 -0.076987 
-0.0355257 0.0569841 -0.0709184 -0.0469211 0.0769917 -0.0698316 -0.0848825 0.0894913 -0.0727564 
-0.134218 0.09406 -0.0719124 -0.0628076 0.11358 -0.0686058 -0.115326 0.133015 -0.071044 
-0.141571 0.0588538 -0.0584728 -0.109041 0.0590484 -0.0637356 -0.0431001 0.0805797 -0.0604698 
-0.117222 0.0876411 -0.062004 -0.0639653 0.0872888 -0.0669894 -0.0222916 0.131238 -0.0613546 
-0.0156294 0.0603807 -0.058222 -0.125019 0.057397 -0.0466754 -0.00719218 0.055749 -0.045171 
-0.100409 0.0628263 -0.0458467 -0.0751635 0.0668001 -0.0497039 -0.00205809 0.0644772 -0.0505457 
-0.0825843 0.122104 -0.0483578 -0.0121907 0.13032 -0.0525009 -0.0529626 0.139193 -0.0495144 
-0.080348 0.0597937 -0.0424391 -0.0577968 0.0593786 -0.0431239 -0.0869892 0.0671077 -0.0400437 
-0.0683397 0.0692549 -0.038309 -0.00100137 0.0645438 -0.0396002 -0.0777684 0.055207 -0.0307822 
-0.0542108 0.079383 -0.0313918 -0.104349 0.0979938 -0.0326997 -0.127583 0.115705 -0.0307977 
-0.107232 0.0655981 -0.0243865 -0.071505 0.0641625 -0.0230081 -0.0654335 0.054977 -0.0228392 
-0.0567618 0.061127 -0.0180331 -0.0706186 0.0755872 -0.0180507 -0.0588513 0.0731556 -0.0183663 
-0.0488331 0.0941236 -0.019761 -0.130748 0.0620002 -0.0112111 -0.0786534 0.0577026 -0.00870218 
-0.0879558 0.0694478 -0.0130761 -0.0167574 0.132398 -0.0111751 -0.101368 0.0559705 -0.00353687 
-0.142596 0.0635125 -0.000831462 -0.127498 0.0744639 -0.00551769 -0.135192 0.0798556 -0.000985649 
-0.0210895 0.0897413 -0.00364607 -0.0424519 0.10083 -0.00115547 -0.0258652 0.13208 -0.00285475 
-0.00164776 0.0724499 -0.02277 -0.11771 0.0577823 0.00686721 -0.0908724 0.0560438 0.00314542 
-0.0762463 0.0556743 0.000899684 -0.0583666 0.0572567 0.00126865 -0.0409072 0.0551525 0.00317102 
-0.0293718 0.0617631 0.00267297 -0.108796 0.0618201 0.00142909 -0.0886783 0.0681342 0.0017117 
-0.0101306 0.0686213 0.00559486 -0.09852 0.0758672 0.0074445 -0.000659561 0.0727836 0.00475339 
-0.00512406 0.100997 0.000900654 -0.14493 0.0552321 0.0126556 -0.0608983 0.0563281 0.011561 
-0.135709 0.0636125 0.00860989 -0.113655 0.0666514 0.00971609 -0.101185 0.0631939 0.00991208 
-0.0876554 0.0739311 0.0131986 -0.052226 0.0694187 0.0110086 -0.12911 0.0607686 0.0158804 
-0.119002 0.0597379 0.018533 -0.0927507 0.0571375 0.0169038 -0.0809844 0.0590721 0.0194958 
-0.0560974 0.0556154 0.0205314 -0.0212127 0.05568 0.0182616 -0.0115479 0.0599509 0.0157302 
-0.139788 0.0551969 0.0257169 -0.0423323 0.061387 0.0276488 -0.134659 0.068554 0.0251737 
-0.123043 0.0655335 0.0297623 -0.0237472 0.0685453 0.0279177 -0.038001 0.0738204 0.0233226 
-0.0985444 0.0822605 0.0271648 -0.0866736 0.107602 0.0242818 -0.0487834 0.145578 0.0266138 
-0.117668 0.0572478 0.0363135 -0.0929897 0.0553723 0.0345829 -0.0652579 0.0554919 0.0338641 
-0.0426442 0.0820759 0.0366717 -0.1024 0.109134 0.0355854 -0.14217 0.0586837 0.0407789 
-0.0430213 0.0581013 0.040378 -0.0776529 0.123765 0.14469 -0.125851 0.075832 0.0438025 
-0.0660782 0.121613 0.0377727 -0.0141914 0.0551777 0.0479491 -0.125665 0.0815966 0.0526722 
-0.0994505 0.112847 0.0495484 -0.0895912 0.115132 0.0457704 -0.0908219 0.17967 0.0527284 
-0.0820123 0.0580323 0.0533817 -0.048329 0.0589728 0.0590627 -0.0074733 0.0589654 0.0578062 
-0.143796 0.0612049 0.0550571 -0.0793695 0.0692076 0.0534321 -0.00251044 0.0661459 0.0529343 
-0.068157 0.0744898 0.0584505 -0.11315 0.0922853 0.0566551 -0.0401407 0.112203 0.0590509 
-0.121153 0.0605319 0.0606514 -0.106768 0.128571 0.062131 -0.0515694 0.137306 0.0621647 
-0.139707 0.130704 0.0708476 -0.129743 0.126466 0.0741862 -0.0517667 0.133493 0.0721785 
-0.0699994 0.0609138 0.0825841 -0.0126392 0.0772091 0.077252 -0.0915618 0.0864787 0.0784539 
-0.132602 0.089091 0.0836071 -0.0419239 0.0955053 0.0877232 -0.141346 0.118455 0.0840536 
-0.0260893 0.122494 0.0824707 -0.120296 0.130882 0.0836254 -0.0584889 0.0838282 0.0938827 
-0.111667 0.101264 0.0911037 -0.0169162 0.104087 0.0973861 -0.029069 0.0840394 0.101063 
-0.121105 0.094664 0.100233 -0.0752517 0.0865673 0.104831 -0.0677272 0.0964913 0.100852 
-0.140335 0.111881 0.104455 -0.0811735 0.120122 0.100325 -0.0295099 0.127425 0.100623 
-0.0583611 0.0710978 0.112136 -0.0644253 0.0836668 0.109648 -0.00296476 0.0696212 0.112186 
-0.109689 0.0929048 0.113555 -0.0419227 0.101844 0.114573 -0.0291451 0.104634 0.112805 
-0.0358726 0.0598787 0.121806 -0.0502337 0.0859669 0.123256 -0.132053 0.0974764 0.121162 
-0.0695466 0.0745381 0.131691 -0.124154 0.0875421 0.130536 -0.106999 0.0900229 0.130188 
-0.0326526 0.0572681 0.136656 -0.115614 0.0681783 0.141782 -0.0738703 0.0716212 0.141734 
-0.0614967 0.0877105 0.139735 -0.048223 0.101649 0.137118 -0.0814139 0.0567723 0.143476 
-0.0390541 0.0579789 0.144652 -0.000704076 0.0929228 0.0140692 0.013956 0.0557447 -0.144677 
0.0225917 0.0613794 -0.144981 0.0416791 0.0578795 -0.142853 0.12036 0.0549694 -0.142398 
0.0099979 0.066621 -0.142974 0.0149619 0.0762007 -0.14242 0.143045 0.0754852 -0.1443 
0.105963 0.0858065 -0.144576 0.135649 0.0887241 -0.144422 0.00476675 0.05614 -0.138992 
0.0317118 0.0568255 -0.140418 0.0490421 0.0669382 -0.140698 0.0589927 0.0648791 -0.140792 
0.0836506 0.0634047 -0.141496 0.0281135 0.0716535 -0.137282 0.0217534 0.0612439 -0.134016 
0.0412305 0.0603409 -0.130856 0.0986079 0.059642 -0.131959 0.122647 0.0566007 -0.132812 
0.0132802 0.0674247 -0.131122 0.0328889 0.0664068 -0.128775 0.0537752 0.0679402 -0.127941 
0.142846 0.0563556 -0.122929 0.0856011 0.069338 -0.125114 0.0943974 0.0754497 -0.126189 
0.119721 0.0876456 -0.122695 0.00365478 0.0596159 -0.114253 0.0292381 0.0570778 -0.111999 
0.0719653 0.058273 -0.118947 0.0267648 0.0692143 -0.119815 0.100511 0.093342 -0.118966 
0.0420017 0.0569361 -0.105342 0.00377667 0.0633722 -0.104734 0.0613563 0.0712011 -0.107308 
0.0393202 0.0838438 -0.108637 0.0325102 0.0908255 -0.111992 0.117978 0.103775 -0.105087 
0.0918537 0.0579541 -0.101103 0.0326938 0.0657325 -0.100316 0.0223424 0.0696653 -0.101815 
0.0737298 0.0870058 -0.103129 0.000779234 0.06029 -0.0920163 0.021783 0.0552968 -0.0941054 
0.049475 0.0559343 -0.0939558 0.0606444 0.0611549 -0.0951555 0.106273 0.0568379 -0.0934876 
0.117658 0.05734 -0.0897893 0.0533708 0.0765236 -0.094838 0.0901736 0.101066 -0.0905589 
0.136234 0.0986801 -0.0935423 0.0310111 0.0653433 -0.0880868 0.0533099 0.0635661 -0.0864462 
0.0492722 0.0826833 -0.0871316 0.10733 0.0793167 -0.0895296 0.0316124 0.0899916 -0.0893493 
0.00226578 0.10006 -0.0816144 0.0771555 0.10011 -0.086631 0.0140266 0.0638719 -0.0807112 
0.0613902 0.0637605 -0.0779153 0.0933617 0.0716752 -0.0813559 0.0210369 0.0581227 -0.0694442 
0.0712325 0.0595612 -0.0720804 0.0410372 0.070447 -0.0743556 0.106697 0.0917331 -0.0702638 
0.0621242 0.094566 -0.0679095 0.0791726 0.103238 -0.0729427 0.0532516 0.0682858 -0.0679253 
0.0227668 0.0663488 -0.0515985 0.0286561 0.0817014 -0.053031 0.0853605 0.101397 -0.0564998 
0.116199 0.105228 -0.0556874 0.0658769 0.111205 -0.0533704 0.0422652 0.0658813 -0.0507639 
0.0164033 0.0778654 -0.0452164 0.040187 0.0903807 -0.0460998 0.0530486 0.0915783 -0.051609 
0.0449358 0.0597237 -0.0398934 0.126279 0.0608562 -0.0436895 0.144282 0.0627258 -0.0439617 
0.0568272 0.0743591 -0.0444585 0.136634 0.0814456 -0.0389727 0.0682016 0.0936837 -0.0405514 
0.0841556 0.101779 -0.039922 0.0133524 0.10504 -0.0406478 0.0288078 0.056065 -0.0382354 
0.13626 0.068386 -0.0340733 0.037415 0.121976 -0.0346089 0.0557532 0.0780089 -0.0291416 
0.0190592 0.0823616 -0.0269862 0.0474859 0.121249 -0.020541 0.0920142 0.0614752 -0.0225617 
0.143716 0.0651123 -0.0167227 0.0141128 0.0993999 -0.00114087 0.0987391 0.0726922 -0.0183382 
0.0791933 0.0816616 -0.0166731 0.107261 0.0594153 -0.0121881 0.0547552 0.0851721 -0.0151904 
0.1411 0.0807736 -0.012915 0.134203 0.093562 -0.012593 0.0401931 0.0569914 -0.00232622 
0.0490432 0.066915 -0.00506478 0.0629466 0.0646269 -0.0070912 0.0813515 0.0732061 -0.0016982 
0.0599364 0.0861908 -0.00561042 0.144727 0.0910857 -0.00498156 0.0504745 0.0555332 0.00180957 
0.123447 0.0568677 0.00231832 0.138432 0.0663379 0.00663036 0.0196241 0.103179 0.00660408 
0.074191 0.0556211 0.0086454 0.130741 0.0599444 0.00944652 0.0872621 0.0685041 0.0131954 
0.116555 0.0673689 0.00763574 0.0246662 0.0749544 0.0115708 0.0483387 0.0575938 0.0190166 
0.0918702 0.057955 0.0215248 0.102679 0.0589385 0.0196924 0.114549 0.0573943 0.0182524 
0.0965981 0.071185 0.0196955 0.114817 0.132753 0.14323 0.10895 0.101204 0.0160347 
0.0609569 0.0641491 0.0287959 0.0734066 0.0626966 0.0236089 0.0254004 0.0839616 0.0239248 
0.0896376 0.0554574 0.0329706 0.103205 0.0568108 0.0307837 0.135198 0.0591818 0.0351243 
0.0823711 0.0640492 0.0365606 0.044361 0.0720809 0.0343107 0.102222 0.0730951 0.0328348 
0.017049 0.0551432 0.0401757 0.0803216 0.0550973 0.0447987 0.121201 0.0556489 0.0393647 
0.143503 0.0635829 0.041489 0.0180996 0.0728586 0.0379077 0.0315408 0.113196 0.0388377 
0.104997 0.111485 0.0435067 0.110324 0.0622437 0.05194 0.131368 0.0595408 0.0457551 
0.0245787 0.0637127 0.0466558 0.0637941 0.0669175 0.0463513 0.0534377 0.0746391 0.0481045 
0.0544403 0.0559265 0.0549597 0.0852251 0.0807174 0.0569815 0.00108221 0.105758 0.0533034 
0.041213 0.105401 0.0587349 0.0679757 0.0574815 0.0657201 0.118279 0.0671255 0.0638948 
0.000582045 0.100178 0.0634441 0.0997044 0.12405 0.0671151 0.00844612 0.0634191 0.0715346 
0.0955815 0.0745317 0.0754087 0.115326 0.092098 0.0703142 0.136535 0.0958143 0.0710855 
0.135198 0.117612 0.0714565 0.108293 0.131784 0.0738285 0.0176175 0.0551956 0.0811374 
0.134326 0.0670079 0.075064 0.144228 0.0693919 0.0826722 0.0383567 0.0765173 0.0770158 
0.106103 0.0772231 0.0811958 0.0417779 0.0905332 0.087189 0.0877788 0.10416 0.0899658 
0.0465262 0.123332 0.0838692 0.095258 0.0631543 0.0914909 0.0164039 0.0719978 0.0903506 
0.0241798 0.0966387 0.0983121 0.0213016 0.0600182 0.104308 0.144605 0.0579695 0.0982536 
0.0547062 0.0699016 0.103197 0.0873445 0.0607078 0.102198 0.125774 0.0753627 0.103023 
0.0702012 0.103665 0.104384 0.0171079 0.0550526 0.114584 0.0297738 0.0631863 0.119288 
0.137831 0.0676251 0.1129 0.0672204 0.078242 0.114964 0.0766507 0.117549 0.117641 
0.0432575 0.129424 0.116816 0.0230566 0.0710609 0.122598 0.0397316 0.0705631 0.122775 
0.069938 0.070692 0.121443 0.0142269 0.121275 0.122669 0.128015 0.124115 0.128914 
0.139927 0.0600175 0.138242 0.0773401 0.0630285 0.134692 0.0241925 0.0740665 0.1411 
0.128152 0.0766187 0.141441 0.0806615 0.0920437 0.139791 0.0430892 0.0990813 0.136359 
0.00417499 0.137524 0.139486 0.119362 0.0658685 0.143596 0.014167 0.12402 0.144783 
0.000820836 0.0568995 0.0447797 
VERTICES 401 400
OFFSETS vtktypeint64
0 1 2 3 4 5 6 7 8 
9 10 11 12 13 14 15 16 17 
18 19 20 21 22 23 24 25 26 
27 28 29 30 31 32 33 34 35 
36 37 38 39 40 41 42 43 44 
45 46 47 48 49 50 51 52 53 
54 55 56 57 58 59 60 61 62 
63 64 65 66 67 68 69 70 71 
72 73 74 75 76 77 78 79 80 
81 82 83 84 85 86 87 88 89 
90 91 92 93 94 95 96 97 98 
99 100 101 102 103 104 105 106 107 
108 109 110 111 112 113 114 115 116 
117 118 119 120 121 122 123 124 125 
126 127 128 129 130 131 132 133 134 
135 136 137 138 139 140 141 142 143 
144 145 146 147 148 149 150 151 152 
153 154 155 156 157 158 159 160 161 
162 163 164 165 166 167 168 169 170 
171 172 173 174 175 176 177 178 179 
180 181 182 183 184 185 186 187 188 
189 190 191 192 193 194 195 196 197 
198 199 200 201 202 203 204 205 206 
207 208 209 210 211 212 213 214 215 
216 217 218 219 220 221 222 223 224 
225 226 227 228 229 230 231 232 233 
234 235 236 237 238 239 240 241 242 
243 244 245 246 247 248 249 250 251 
252 253 254 255 256 257 258 259 260 
261 262 263 264 265 266 267 268 269 
270 271 272 273 274 275 276 277 278 
279 280 281 282 283 284 285 286 287 
288 289 290 291 292 293 294 295 296 
297 298 299 300 301 302 303 304 305 
306 307 308 309 310 311 312 313 314 
315 316 317 318 319 320 321 322 323 
324 325 326 327 328 329 330 331 332 
333 334 335 336 337 338 339 340 341 
342 343 344 345 346 347 348 349 350 
351 352 353 354 355 356 357 358 359 
360 361 362 363 364 365 366 367 368 
369 370 371 372 373 374 375 376 377 
378 379 380 381 382 383 384 385 386 
387 388 389 390 391 392 393 394 395 
396 397 398 399 400 
CONNECTIVITY vtktypeint64
0 1 2 3 4 5 6 7 8 
9 10 11 12 13 14 15 16 17 
18 19 20 21 22 23 24 25 26 
27 28 29 30 31 32 33 34 35 
36 37 38 39 40 41 42 43 44 
45 46 47 48 49 50 51 52 53 
54 55 56 57 58 59 60 61 62 
63 64 65 66 67 68 69 70 71 
72 73 74 75 76 77 78 79 80 
81 82 83 84 85 86 87 88 89 
90 91 92 93 94 95 96 97 98 
99 100 101 102 103 104 105 106 107 
108 109 110 111 112 113 114 115 116 
117 118 119 120 121 122 123 124 125 
126 127 128 129 130 131 132 133 134 
135 136 137 138 139 140 141 142 143 
144 145 146 147 148 149 150 151 152 
153 154 155 156 157 158 159 160 161 
162 163 164 165 166 167 168 169 170 
171 172 173 174 175 176 177 178 179 
180 181 182 183 184 185 186 187 188 
189 190 191 192 193 194 195 196 197 
198 199 200 201 202 203 204 205 206 
207 208 209 210 211 212 213 214 215 
216 217 218 219 220 221 222 223 224 
225 226 227 228 229 230 231 232 233 
234 235 236 237 238 239 240 241 242 
243 244 245 246 247 248 249 250 251 
252 253 254 255 256 257 258 259 260 
261 262 263 264 265 266 267 268 269 
270 271 272 273 274 275 276 277 278 
279 280 281 282 283 284 285 286 287 
288 289 290 291 292 293 294 295 296 
297 298 299 300 301 302 303 304 305 
306 307 308 309 310 311 312 313 314 
315 316 317 318 319 320 321 322 323 
324 325 326 327 328 329 330 331 332 
333 334 335 336 337 338 339 340 341 
342 343 344 345 346 347 348 349 350 
351 352 353 354 355 356 357 358 359 
360 361 362 363 364 365 366 367 368 
369 370 371 372 373 374 375 376 377 
378 379 380 381 382 383 384 385 386 
387 388 389 390 391 392 393 394 395 
396 397 398 399 
POINT_DATA 400
FIELD FieldData 8
id 1 400 int
3781 3745 3994 2648 3970 3801 3744 3884 2755 
3937 3823 3023 3726 3959 3894 2739 3785 3586 
3931 2901 3917 3987 3773 3907 3024 3296 3903 
3749 3981 3844 3943 3757 3685 3960 3852 3025 
3180 3830 3802 3403 3873 3858 3734 3359 3242 
3711 3727 3814 3976 3824 2756 3740 3731 3716 
3405 3686 3949 2823 3767 3026 3297 2961 3774 
3243 3908 3404 3877 3853 2962 3758 3932 2749 
3687 3181 2825 3360 3808 3786 2824 2482 3918 
3809 3878 3759 3135 3919 3961 3787 3996 3995 
3895 3896 3938 3939 3133 3885 3925 3815 3920 
3244 3845 3134 3738 2902 3720 3746 3975 3782 
3835 3182 3971 3879 3909 3263 3519 3688 3962 
3982 3950 3831 3988 3940 3825 3803 3631 3775 
3747 3810 2963 3836 3406 3955 3854 3587 3846 
3951 3794 3816 3760 3768 3788 3989 3783 3863 
3461 3722 3728 3735 3847 3941 3769 2826 3027 
3911 3136 3871 3721 3910 3906 3761 3859 3795 
3864 3299 2757 3245 3407 2964 3754 3765 3904 
3776 3898 3736 3588 3183 3874 3865 3817 2509 
3886 3837 3880 3804 3748 2649 3963 3997 3983 
3933 3866 3855 3954 3984 3887 3956 3921 3897 
3977 3729 3875 3632 3690 3689 3848 3953 3899 
3849 3161 3934 3927 3952 3876 3942 3905 3972 
3818 3838 3811 3900 3789 3964 2927 3741 3717 
3978 3762 3860 3867 3440 3957 3965 3730 3888 
2989 3922 3944 3665 3819 3784 2867 3796 3839 
3945 3770 3208 3985 3766 3737 2748 3755 3812 
3869 3856 3666 3868 3889 2591 3840 3712 3691 
3793 3826 2481 3162 3441 3805 3777 3881 3386 
3262 3832 3778 3763 3891 3841 3827 3813 3999 
3915 3929 3797 3385 2483 3850 3806 2751 3928 
3842 2750 3966 3946 3713 3613 3990 3518 3324 
3890 3882 3923 3614 3851 3973 3913 3771 3714 
3991 3723 3870 3901 3912 3779 3914 3442 3084 
3764 3791 3820 3828 2790 3790 3718 3692 2690 
3732 3163 3742 3750 3667 3986 3974 3979 3947 
3892 3668 3998 3926 3916 2928 3715 3924 3756 
3807 3833 3751 3719 3739 2484 3861 4000 3834 
3821 3993 3930 3862 3520 3325 3980 3799 3780 
3752 3209 3843 3958 3326 3798 3902 3443 3829 
2752 2868 3857 3743 2550 3772 3872 3968 3992 
3822 3792 3883 3733 3800 3753 3521 3969 2753 
3725 3694 3724 3444 3935 3967 3693 3948 3893 
2754 3936 2990 3298 
type 1 400 int
2 2 2 2 2 2 2 2 2 
2 2 2 2 2 2 2 2 2 
2 2 2 2 2 2 2 2 2 
2 2 2 2 2 2 2 2 2 
2 2 2 2 2 2 2 2 2 
2 2 2 2 2 2 2 2 2 
2 2 2 2 2 2 2 2 2 
2 2 2 2 2 2 2 2 2 
2 2 2 2 2 2 2 2 2 
2 2 2 2 2 2 2 2 2 
2 2 2 2 2 2 2 2 2 
2 2 2 2 2 2 2 2 2 
2 2 2 2 2 2 2 2 2 
2 2 2 2 2 2 2 2 2 
2 2 2 2 2 2 2 2 2 
2 2 2 2 2 2 2 2 2 
2 2 2 2 2 2 2 2 2 
2 2 2 2 2 2 2 2 2 
2 2 2 2 2 2 2 2 2 
2 2 2 2 2 2 2 2 2 
2 2 2 2 2 2 2 2 2 
2 2 2 2 2 2 2 2 2 
2 2 2 2 2 2 2 2 2 
2 2 2 2 2 2 2 2 2 
2 2 2 2 2 2 2 2 2 
2 2 2 2 2 2 2 2 2 
2 2 2 2 2 2 2 2 2 
2 2 2 2 2 2 2 2 2 
2 2 2 2 2 2 2 2 2 
2 2 2 2 2 2 2 2 2 
2 2 2 2 2 2 2 2 2 
2 2 2 2 2 2 2 2 2 
2 2 2 2 2 2 2 2 2 
2 2 2 2 2 2 2 2 2 
2 2 2 2 2 2 2 2 2 
2 2 2 2 2 2 2 2 2 
2 2 2 2 2 2 2 2 2 
2 2 2 2 2 2 2 2 2 
2 2 2 2 2 2 2 2 2 
2 2 2 2 2 2 2 2 2 
2 2 2 2 2 2 2 2 2 
2 2 2 2 2 2 2 2 2 
2 2 2 2 2 2 2 2 2 
2 2 2 2 2 2 2 2 2 
2 2 2 2 
i 3 400 int
0 0 0 0 0 0 0 0 0 
0 0 0 0 0 0 0 0 0 
0 0 0 0 0 0 0 0 0 
0 0 0 0 0 0 0 0 0 
0 0 0 0 0 0 0 0 0 
0 0 0 0 0 0 0 0 0 
0 0 0 0 0 0 0 0 0 
0 0 0 0 0 0 0 0 0 
0 0 0 0 0 0 0 0 0 
0 0 0 0 0 0 0 0 0 
0 0 0 0 0 0 0 0 0 
0 0 0 0 0 0 0 0 0 
0 0 0 0 0 0 0 0 0 
0 0 0 0 0 0 0 0 0 
0 0 0 0 0 0 0 0 0 
0 0 0 0 0 0 0 0 0 
0 0 0 0 0 0 0 0 0 
0 0 0 0 0 0 0 0 0 
0 0 0 0 0 0 0 0 0 
0 0 0 0 0 0 0 0 0 
0 0 0 0 0 0 0 0 0 
0 0 0 0 0 0 0 0 0 
0 0 0 0 0 0 0 0 0 
0 0 0 0 0 0 0 0 0 
0 0 0 0 0 0 0 0 0 
0 0 0 0 0 0 0 0 0 
0 0 0 0 0 0 0 0 0 
0 0 0 0 0 0 0 0 0 
0 0 0 0 0 0 0 0 0 
0 0 0 0 0 0 0 0 0 
0 0 0 0 0 0 0 0 0 
0 0 0 0 0 0 0 0 0 
0 0 0 0 0 0 0 0 0 
0 0 0 0 0 0 0 0 0 
0 0 0 0 0 0 0 0 0 
0 0 0 0 0 0 0 0 0 
0 0 0 0 0 0 0 0 0 
0 0 0 0 0 0 0 0 0 
0 0 0 0 0 0 0 0 0 
0 0 0 0 0 0 0 0 0 
0 0 0 0 0 0 0 0 0 
0 0 0 0 0 0 0 0 0 
0 0 0 0 0 0 0 0 0 
0 0 0 0 0 0 0 0 0 
0 0 0 0 0 0 0 0 0 
0 0 0 0 0 0 0 0 0 
0 0 0 0 0 0 0 0 0 
0 0 0 0 0 0 0 0 0 
0 0 0 0 0 0 0 0 0 
0 0 0 0 0 0 0 0 0 
0 0 0 0 0 0 0 0 0 
0 0 0 0 0 0 0 0 0 
0 0 0 0 0 0 0 0 0 
0 0 0 0 0 0 0 0 0 
0 0 0 0 0 0 0 0 0 
0 0 0 0 0 0 0 0 0 
0 0 0 0 0 0 0 0 0 
0 0 0 0 0 0 0 0 0 
0 0 0 0 0 0 0 0 0 
0 0 0 0 0 0 0 0 0 
0 0 0 0 0 0 0 0 0 
0 0 0 0 0 0 0 0 0 
0 0 0 0 0 0 0 0 0 
0 0 0 0 0 0 0 0 0 
0 0 0 0 0 0 0 0 0 
0 0 0 0 0 0 0 0 0 
0 0 0 0 0 0 0 0 0 
0 0 0 0 0 0 0 0 0 
0 0 0 0 0 0 0 0 0 
0 0 0 0 0 0 0 0 0 
0 0 0 0 0 0 0 0 0 
0 0 0 0 0 0 0 0 0 
0 0 0 0 0 0 0 0 0 
0 0 0 0 0 0 0 0 0 
0 0 0 0 0 0 0 0 0 
0 0 0 0 0 0 0 0 0 
0 0 0 0 0 0 0 0 0 
0 0 0 0 0 0 0 0 0 
0 0 0 0 0 0 0 0 0 
0 0 0 0 0 0 0 0 0 
0 0 0 0 0 0 0 0 0 
0 0 0 0 0 0 0 0 0 
0 0 0 0 0 0 0 0 0 
0 0 0 0 0 0 0 0 0 
0 0 0 0 0 0 0 0 0 
0 0 0 0 0 0 0 0 0 
0 0 0 0 0 0 0 0 0 
0 0 0 0 0 0 0 0 0 
0 0 0 0 0 0 0 0 0 
0 0 0 0 0 0 0 0 0 
0 0 0 0 0 0 0 0 0 
0 0 0 0 0 0 0 0 0 
0 0 0 0 0 0 0 0 0 
0 0 0 0 0 0 0 0 0 
0 0 0 0 0 0 0 0 0 
0 0 0 0 0 0 0 0 0 
0 0 0 0 0 0 0 0 0 
0 0 0 0 0 0 0 0 0 
0 0 0 0 0 0 0 0 0 
0 0 0 0 0 0 0 0 0 
0 0 0 0 0 0 0 0 0 
0 0 0 0 0 0 0 0 0 
0 0 0 0 0 0 0 0 0 
0 0 0 0 0 0 0 0 0 
0 0 0 0 0 0 0 0 0 
0 0 0 0 0 0 0 0 0 
0 0 0 0 0 0 0 0 0 
0 0 0 0 0 0 0 0 0 
0 0 0 0 0 0 0 0 0 
0 0 0 0 0 0 0 0 0 
0 0 0 0 0 0 0 0 0 
0 0 0 0 0 0 0 0 0 
0 0 0 0 0 0 0 0 0 
0 0 0 0 0 0 0 0 0 
0 0 0 0 0 0 0 0 0 
0 0 0 0 0 0 0 0 0 
0 0 0 0 0 0 0 0 0 
0 0 0 0 0 0 0 0 0 
0 0 0 0 0 0 0 0 0 
0 0 0 0 0 0 0 0 0 
0 0 0 0 0 0 0 0 0 
0 0 0 0 0 0 0 0 0 
0 0 0 0 0 0 0 0 0 
0 0 0 0 0 0 0 0 0 
0 0 0 0 0 0 0 0 0 
0 0 0 0 0 0 0 0 0 
0 0 0 0 0 0 0 0 0 
0 0 0 0 0 0 0 0 0 
0 0 0 0 0 0 0 0 0 
0 0 0 0 0 0 0 0 0 
0 0 0 0 0 0 0 0 0 
0 0 0 0 0 0 0 0 0 
0 0 0 0 0 0 0 0 0 
0 0 0 
v 3 400 double
0.011437581343 0.0064495035338 -0.011133559874 -0.0056303209371 0.0085283445581 0.016039859049 -0.01605119524 0.15964985609 -0.004992368598 
-0.027173646627 0.011902077028 0.021408443641 -0.13317801248 0.16221021249 0.0070055395523 0.010048934566 -0.00070430313784 0.0034683114765 
0.0084999301845 0.1323890659 0.0081926522313 0.0044257893845 0.32210142731 -0.021404986126 -0.015825932323 -0.0093599622889 0.054880867859 
0.00042695319134 0.13846042764 0.029105660503 -0.027682094838 0.035560805087 0.07204171858 -0.032235806057 0.015450186834 0.090000174597 
0.088754276994 0.22662720955 0.01755179333 -0.00066328633309 0.27334262606 0.093316999735 -0.018907630279 -0.02822026076 0.0095209243138 
-0.025736926657 0.022935827229 0.0054638990168 0.036064071996 0.048314981293 0.065461134644 -0.28740901424 0.024229724479 0.0046663801205 
-0.080920948392 -0.042132875242 0.070212812582 0.019798951085 0.040401127349 0.0076420378047 -0.078830096885 0.05744859893 0.00019912973901 
-0.031250205073 0.21919385107 0.082559184695 -0.014669051972 0.098089901573 0.15276819269 0 0.410001241 0 
0.014992955642 -0.025645243798 0.04215090128 0.012718550083 0.067616469755 0.01425317236 0.035121297983 0.12847363527 0.096812815135 
-0.19048707261 0.037453699347 -0.044591951551 0.096087284017 0.12261288527 -0.004294039915 -0.023837693753 0.013424326694 0.030482934101 
-0.025050164443 0.076281527845 0.10356541993 0.17906924697 0.04465336239 0.12954131523 0.12933529232 0.042588217061 0.051919416551 
-0.097092786944 0.060812066546 0.13240196031 -0.024108631974 0.052866387327 -0.0092589620461 -0.0019744625053 0.17072106895 -0.05554937502 
-0.005644904192 0.11634111591 0.004857108426 -0.02568388976 0.17898130461 0.043235618101 -0.040956546694 0.26237529859 -0.077021290032 
-0.0096575554909 0.27005267014 0.0080604148417 -0.041178332009 0.14957725344 0.14796284926 0.1383727102 0.10081244027 -0.098310755058 
0 0.39896583638 0 -0.097613623005 0.14261836488 -0.069878233524 8.7304082862e-05 0.05658216547 0.0490846904 
0.15312727312 0.17656285951 -0.0069606360303 -0.023683525094 0.038479039595 0.077669425022 0.11795535952 0.0097730096812 0.18953233749 
-0.00010155981897 0.4026845298 0.00010091191765 0 0.4099646538 0 0 0.39895779965 -0.0048950405667 
-0.013439671783 0.51232874696 -0.080587636658 -0.12936023577 -0.043487840632 0.063024878278 -0.21182349314 0.046633813357 -0.020952048906 
0.32876983248 -0.031845621495 -0.32283421205 -0.082935369571 0.12454513688 0.22031739751 0 0.39875905054 0 
0.048239276178 0.099225294711 0.24497616456 -0.004507024569 0.40045571211 -0.019038581245 -1.4485258125e-05 0.39873630553 -3.634419112e-05 
0.028135713549 -0.096028905037 0.39390411585 -0.031545988205 0.03808721382 0.20551580488 0.1287683514 0.19121853907 0.11076579337 
0.0073616794846 0.22860097262 0.0056379145434 -0.21558529215 -0.019513045433 -0.17941226195 0.013750131286 0.41310435568 -0.010249234026 
-0.051741169069 0.04058371722 -0.053836692909 0.16177005642 -0.07644656374 -0.00059768219633 -0.0039167831326 0.051254836739 -0.001557137884 
0.21273066105 0.083784470045 0.0040210919325 0.0048568421874 0.08945452959 -0.10391745121 -0.035862658324 0.090291244517 0.064308977049 
0 0.39374558319 -0.0047274651976 -0.0006249839803 0.39654364795 -0.0035443033661 0 0.41049660782 0 
-0.10463700881 -0.09401554567 -0.18572435433 0.022134701501 0.099469048355 -0.23615431165 0.16516498594 -0.03766484776 0.11888971262 
0.12238043293 0.036894853432 0.11068023583 -0.019593090008 0.057115403233 0.099738465183 0.0071542694571 0.0097579034233 -0.10906964922 
0.10261538139 0.024450565892 0.019208162786 0 0.39904491296 0 0 0.40508628054 1.1391752074e-05 
-0.14104871598 0.066372794091 -0.059408977745 0.16391693116 0.0029887343181 -0.044076204173 0.12549813127 -0.053565647859 -0.099595635675 
0.024725401975 0.083038042692 -0.060573489246 -0.0061600299512 0.11429591419 0.13432692073 0.16653134074 0.077142972127 -0.13986434463 
0 0.38773520475 0 0.045844753257 0.11028899352 -0.1898000073 0.027299067379 0.039904766088 -0.010931840784 
-0.016476201133 0.099454444818 -0.084306564822 -0.0030995011966 0.4005287818 -0.0015598553611 -0.046716239386 0.008393984018 -0.03300470256 
0.040199520073 -0.095870598549 -0.086165661967 -0.14770044765 0.17433285824 -0.010388830832 -0.11868926291 0.18694444968 -0.13538814845 
-0.011140416409 0.097767829241 -0.12921837017 -0.018713004647 0.38875185117 7.8913229596e-15 0.0017389604782 0.39882328398 -0.0017389604782 
-0.36665433723 0.044243831614 -0.19837922569 -0.041395108312 0.030254707256 -0.015962865519 -0.046082577918 0.018225688334 0.024099985736 
-0.020268697837 0.015027426483 -0.025738033806 0.16730344752 -0.03966117112 0.007293269271 -0.021052851016 0.051147750358 0.040113639037 
0.14934816722 0.038916575791 0.17108908232 -0.046634918245 -0.00040446379615 -0.042702985677 -0.081684893755 -0.022103683302 -0.017092402979 
-0.033229108723 0.13146619811 -0.072439225811 -0.093883439559 0.14252171153 0.082969879669 0.0076454314498 0.10692208556 -0.019647122656 
-0.026301618679 0.19420349068 -0.026301618679 0.0050133738183 0.03415893043 0.0051985059679 0.068136284096 -0.014428601502 0.0099872882492 
0.032029345529 -0.029687535858 -0.025265408889 0.006069576639 0.039127362139 0.043807565819 -0.04239299415 0.032731008683 -0.025360640441 
-0.029513261594 0.16173266479 0.02841832475 0.058087612515 0.020893658911 0.057573748421 0.020843683995 0.062954747489 -0.02526832503 
-0.035287073814 0.050609594592 0.022602434066 -0.046054797591 0.035397971386 0.092164701031 -0.021958819501 0.054191597684 0.048298013441 
0.045861773211 0.010416166083 0.066043061475 0.10233813382 -0.057334312558 0.036009067924 0.08384646776 0.068416862212 0.012924444158 
0.059680260923 -0.0043191316277 -0.0088384705466 0.1075239518 0.021635070801 0.091420686529 0.024759942221 0.078324211804 0.044473428344 
-0.065001341762 0.019554148352 0.081816480773 -0.074711751139 -0.0080621039028 0.03428911449 0.13707801014 0.10385176188 0.11392848556 
-0.3079784592 0.20546468663 -0.29548681616 -0.0021049833578 0.38899466784 -0.000126565171 0.14839527413 0.58811835358 0.043079860813 
-0.055878085168 0.018552676409 0.077319089015 0.041737892857 0.0073860254482 0.11542297028 -0.0096835260449 0.035256949499 0.052062394919 
-0.00052740355422 0.38710693906 -0.0011288573072 -0.0020887119363 0.38986351732 -0.0070491576428 0.035405350312 -0.063905926467 0.12156320456 
0.17678183662 0.045691837597 0.11687765623 -0.22880268682 0.26789886558 -0.019808350501 -0.028734807798 0.24194419456 -0.0010331898798 
0 0.41007381017 0 0.064386872169 0.027544578947 0.067082879204 0.031131950044 0.032706997154 0.10031977015 
0.0020429030869 0.39521847008 -0.0010600737839 -0.0016610994383 0.29654940525 0.0087496036546 -0.0067172086632 0.56567410001 0.037516284279 
0.049467551183 -0.10265216645 -0.065391883925 -0.00044574958215 0.029243049089 0.10201140501 -0.14848486509 -0.054311861518 -0.14726680058 
0.037498491992 -0.098639938923 0.1588119919 -0.13645977946 0.12244416595 0.087249181893 -0.20612077071 0.03697736462 -0.10285249585 
-0.018697854525 0.19836571032 0.034234384001 0.012190777852 0.32929773123 0.012633784709 0 0.41052549956 0 
-0.1805049794 0.05781629622 -0.033949824544 0 0.39882697079 0 0 0.39925497113 0 
0.00056348824668 0.40152978625 0.00027402949384 0.0023122065005 0.39628274053 0.0023597342796 0 0.39875819248 -0.0097057056303 
0.16820795446 0.029549338883 0.12446726565 -0.076416026534 0.17725342488 -0.024615689046 0.044804293718 0.32049728826 -0.0062287931832 
-0.20190154007 0.19481537035 0.026359778761 0.0002814165965 0.39586236908 -0.0042450652735 0 0.39872827304 0 
0 0.38755395842 -0.0050852537353 -8.0938774001e-06 0.39894161244 0 0.042256730961 0.27150018908 0.1254322865 
-0.00036883905222 0.40129851273 -0.0077537456699 0 0.38761842277 0 -0.0033082998542 0.13377592098 -0.0033247496929 
0.0012503121485 0.38702661056 -0.005926866043 0.067490180065 0.26525617797 0.16187870525 -0.027545708121 0.38422685286 0.11030070993 
0 0.41016565709 9.1963837408e-06 0.0002436659938 0.41148920957 0.0063921664547 -0.0046666478446 0.28784143851 -0.0046798590522 
-0.018673129003 0.22509155007 0.014510142177 -0.053217283839 0.22170666975 -0.058771851548 0.11958812085 0.2582068389 -0.11068487009 
0 0.3987994427 6.9043932791e-06 0.0024336544151 0.40286253151 0.0042270621109 -0.002634341908 0.41110012695 0.0010203462189 
-0.012212897362 0.075823784745 -0.18361467497 -0.00032362647397 0.39932044177 -0.0012764948875 0.00051441565056 0.39864167423 0.0017178022421 
-0.081403630411 0.18753371313 0.15957691278 0.020188320678 0.34687093157 -0.00040929342903 0.086053560792 0.32893311383 -0.0017445639745 
0.019328964446 -0.069875921765 -0.12175248855 -0.30057167303 -0.0057001018753 -0.016076409613 -0.094698718667 0.079663079348 -0.023938982104 
-0.099007385536 0.082080622725 -0.049446953515 0.003430585782 0.26858144658 0.036345321829 -0.10548329414 -0.030831930056 -0.0013404948435 
0.14052862254 0.048100854141 0.0025797650296 -0.20581814112 0.29109106659 -0.25671196081 -0.022965021149 -0.01306320977 -0.024671666386 