# vtk DataFile Version 5.1
Generated by LIGGGHTS
ASCII
DATASET POLYDATA
POINTS 1352 float
-0.134978 0.0556009 -0.143219 -0.137916 0.0693764 -0.1427 -0.121536 0.0944657 -0.142497 
-0.140425 0.149504 -0.144591 -0.143281 0.0611461 -0.140652 -0.0229003 0.0834532 -0.13549 
-0.0232625 0.12157 -0.138237 -0.105817 0.151249 -0.14022 -0.0704159 0.153503 -0.139942 
-0.00242885 0.16396 -0.138765 -0.133132 0.0580161 -0.127607 -0.120128 0.0602839 -0.133967 
-0.0838167 0.0625719 -0.130943 -0.00306703 0.0652293 -0.12757 -0.130759 0.0799036 -0.133616 
-0.0122854 0.0847106 -0.132435 -0.103599 0.102597 -0.132262 -0.143145 0.16596 -0.134008 
-0.120464 0.0575743 -0.120988 -0.0371645 0.0828708 -0.126583 -0.0291765 0.106287 -0.122595 
-0.023022 0.151816 -0.12412 -0.129709 0.062427 -0.119084 -0.136921 0.0787672 -0.117545 
-0.0409056 0.0891163 -0.113122 -0.145002 0.0927113 -0.112517 -0.0327286 0.101757 -0.113722 
-0.054933 0.134181 -0.119208 -0.0868083 0.15138 -0.11402 -0.144861 0.0606861 -0.108731 
-0.0772756 0.0711034 -0.110731 -0.0560451 0.0918579 -0.109847 -0.132128 0.102273 -0.111507 
-0.0723343 0.14652 -0.112439 -0.0600597 0.169844 -0.111523 -0.102836 0.0639328 -0.104224 
-0.0302837 0.0633557 -0.0951509 -0.139671 0.0733781 -0.0934844 -0.030773 0.117145 -0.0920761 
-0.144613 0.0636892 -0.0847774 -0.0573368 0.0880165 -0.0835052 -0.0379007 0.0605688 -0.0767324 
-0.10836 0.072494 -0.0754003 -0.104116 0.0978279 -0.081798 -0.0278851 0.14938 -0.0824693 
-0.0746589 0.181174 -0.0787721 -0.0171151 0.0595339 -0.0746457 -0.000616124 0.0552778 -0.0677887 
-0.129448 0.12578 -0.0721416 -0.00310082 0.0841832 -0.0601446 -0.0426463 0.108356 -0.0611322 
-0.0980063 0.130115 -0.0645031 -0.0336841 0.147611 -0.0609291 -0.0778055 0.0644987 -0.0593261 
-0.0685971 0.062777 -0.0431957 -0.0329246 0.0715611 -0.0405686 -0.0133639 0.0827285 -0.0397412 
-0.131509 0.113606 -0.0447337 -0.0304004 0.148816 -0.0385931 -0.124358 0.0801536 -0.0356817 
-0.0335829 0.161796 -0.0310434 -0.0594088 0.0842592 -0.0240438 -0.0214907 0.104131 -0.0242634 
-0.136887 0.056718 -0.0153112 -0.126026 0.0576724 -0.0160477 -0.102118 0.0622795 -0.0203886 
-0.00684848 0.0897167 -0.019178 -0.131216 0.168274 -0.0200091 -0.0352512 0.067065 -0.0123637 
-0.10481 0.0876815 -0.0119442 -0.0576216 0.165711 -0.0116684 -0.134999 0.0681049 -0.00480243 
-0.0912023 0.0626263 -0.00612728 -0.131511 0.0877519 -0.0062768 -0.0185884 0.0558127 0.00570175 
-0.13978 0.0642564 0.00482797 -0.0356053 0.0742075 0.00211103 -0.00589977 0.0803111 0.00117904 
-0.0709313 0.112381 0.00633941 -0.0309078 0.0557817 0.00867465 -0.01495 0.0710009 0.0122572 
-0.122635 0.090002 0.00853975 -0.00910284 0.0857438 0.0130296 -0.0433225 0.106131 0.00980094 
-0.115161 0.0685169 0.0188524 -0.144286 0.0744709 0.0191141 -0.123291 0.0796952 0.0173196 
-0.0129532 0.0993842 0.0212403 -0.110246 0.0561753 0.0266242 -0.132029 0.0699437 0.0267471 
-0.131415 0.0985329 0.0257435 -0.120817 0.0889148 0.0355576 -0.104252 0.0968147 0.031562 
-0.105658 0.172588 0.0305338 -0.142185 0.0828752 0.0454914 -0.04902 0.0790967 0.0500691 
-0.0167926 0.0821638 0.0461286 -0.0943792 0.0921289 0.0489576 -0.00805265 0.085882 0.0502992 
-0.119556 0.116332 0.0523025 -0.0084307 0.13594 0.0509507 -0.140788 0.156211 0.051727 
-0.0548639 0.0554439 0.0591676 -0.0773243 0.0769768 0.053345 -0.0281217 0.0619693 0.0608176 
-0.0743762 0.145308 0.0638887 -0.0975117 0.152964 0.064562 -0.059253 0.185334 0.0622365 
-0.120844 0.0787302 0.0731243 -0.135135 0.145391 0.0716285 -0.142926 0.0606827 0.0758557 
-0.104792 0.154587 0.0775231 -0.0795627 0.195493 0.0793335 -0.0185534 0.0657817 0.0876921 
-0.0778744 0.0923343 0.0845819 -0.0806502 0.0594786 0.0945964 -0.045563 0.0711422 0.0962043 
-0.14005 0.0786545 0.0950344 -0.0229943 0.129088 0.0934808 -0.0469772 0.199269 0.0962444 
-0.0429444 0.199264 0.0961839 -0.109741 0.068918 0.0990943 -0.0310871 0.165643 0.0990349 
-0.0469227 0.199304 0.100277 -0.0428899 0.199299 0.100217 -0.118618 0.0765718 0.108947 
-0.106674 0.101548 0.113867 -0.0486009 0.0768111 0.12129 -0.128436 0.1175 0.127255 
-0.110165 0.183436 0.123023 -0.117649 0.112792 0.134041 -0.130624 0.0617655 0.142036 
-0.00356677 0.100761 0.139321 -0.109086 0.125969 0.135023 -0.0838015 0.0737174 0.142629 
-0.078043 0.215522 -0.143763 -0.0891474 0.216339 -0.143179 -0.0911019 0.22476 -0.14449 
-0.0770009 0.226338 -0.145309 -0.0562681 0.241113 -0.147376 -0.0399192 0.241132 -0.147376 
-0.0915721 0.261794 -0.142464 -0.0919777 0.274797 -0.146266 -0.0779613 0.274888 -0.147089 
-0.0562759 0.297425 -0.147116 -0.0399529 0.297432 -0.147115 -0.139089 0.304613 -0.14332 
-0.115583 0.304613 -0.14332 -0.139089 0.389456 -0.14332 -0.115583 0.389456 -0.14332 
-0.128396 0.396938 -0.146454 -0.0969302 0.396925 -0.146503 -0.0790869 0.260626 -0.14153 
-0.056304 0.24173 -0.131407 -0.0398684 0.241739 -0.131409 -0.0563222 0.298597 -0.132063 
-0.0398866 0.298606 -0.132064 -0.123306 0.360954 -0.132962 -0.0615004 0.237166 -0.124054 
-0.0446341 0.235672 -0.122085 -0.0600799 0.295799 -0.122658 -0.139089 0.304613 -0.119815 
-0.115583 0.304613 -0.119815 -0.100467 0.347903 -0.12327 -0.139089 0.389456 -0.119815 
-0.0971417 0.246744 -0.11691 -0.0768289 0.246861 -0.116911 -0.0432137 0.294306 -0.120688 
-0.0973113 0.314891 -0.116758 -0.0769984 0.315009 -0.116758 -0.0507422 0.314175 -0.11614 
-0.0246427 0.314175 -0.11614 -0.128255 0.395838 -0.117691 -0.0969765 0.39583 -0.117671 
-0.0498646 0.392835 -0.115263 -0.0255203 0.392835 -0.115263 -0.0634882 0.235708 -0.107188 
-0.047687 0.344177 -0.105576 -0.118088 0.348127 -0.104892 -0.100577 0.347827 -0.104892 
-0.110795 0.376735 -0.110386 -0.046622 0.234215 -0.105218 -0.0799832 0.29357 -0.0978987 
-0.0593754 0.290903 -0.105597 -0.0452015 0.292848 -0.103822 -0.0607662 0.297009 -0.0980793 
-0.100222 0.316878 -0.101118 -0.0725998 0.316128 -0.10108 -0.0367041 0.326925 -0.100254 
-0.0799836 0.37183 -0.0978953 -0.0982927 0.394794 -0.100957 -0.0741948 0.394794 -0.100957 
-0.126484 0.242441 -0.0933433 -0.11621 0.245509 -0.0945835 -0.0971416 0.246639 -0.0965979 
-0.0768289 0.246756 -0.0965977 -0.0958834 0.31125 -0.096786 -0.0780915 0.312118 -0.0968238 
-0.0538263 0.310671 -0.0923854 -0.0497157 0.314731 -0.0904782 -0.0246427 0.314175 -0.0900407 
-0.0948224 0.35117 -0.0959242 -0.0757855 0.354578 -0.0925597 -0.0628608 0.383464 -0.0972906 
-0.0392411 0.383464 -0.0972906 -0.0778407 0.395013 -0.0923202 -0.0498646 0.392835 -0.0909184 
-0.0255203 0.392835 -0.0909184 -0.124111 0.209422 -0.0827293 -0.124223 0.201059 -0.0823927 
-0.119291 0.20918 -0.0826866 -0.119402 0.200817 -0.0823499 -0.123376 0.208394 -0.0892718 
-0.113102 0.211462 -0.090512 -0.031246 0.231111 -0.0857886 -0.0163323 0.23113 -0.0858493 
-0.115182 0.249333 -0.0843137 -0.0312753 0.281645 -0.0848592 -0.0163614 0.281664 -0.0849198 
-0.0959368 0.293193 -0.0838107 -0.129564 0.324342 -0.0849075 -0.101469 0.324352 -0.0852845 
-0.0959368 0.372275 -0.0838107 -0.0738281 0.372275 -0.0838107 -0.127347 0.385512 -0.0827755 
-0.103617 0.38548 -0.0831101 -0.0688738 0.393769 -0.0841248 -0.124492 0.207328 -0.0785684 
-0.124244 0.201556 -0.0775732 -0.119179 0.209432 -0.0779121 -0.119424 0.201314 -0.0775305 
-0.122234 0.213155 -0.0786001 -0.112068 0.213926 -0.0802348 -0.125453 0.245585 -0.0830697 
-0.0825506 0.293905 -0.0779424 -0.0712749 0.292856 -0.0818577 -0.0580884 0.293568 -0.0759754 
-0.0987947 0.313343 -0.076357 -0.0736928 0.313343 -0.076357 -0.028124 0.330964 -0.0817241 
-0.0296809 0.322953 -0.00271278 -0.0494128 0.337476 -0.0806269 -0.0580887 0.371828 -0.075972 
-0.0265305 0.382561 -0.0783634 -0.00347778 0.382639 -0.0781842 -0.0982927 0.394794 -0.076859 
-0.0741948 0.394794 -0.076859 -0.104708 0.21389 -0.0707451 -0.0941809 0.213117 -0.069919 
-0.0311633 0.230312 -0.0708757 -0.0162494 0.230331 -0.0709365 -0.0932865 0.248533 -0.0700017 
-0.103814 0.249307 -0.0708278 -0.0311924 0.280845 -0.0699462 -0.0162786 0.280865 -0.0700071 
-0.0634763 0.331824 -0.0728092 -0.0367041 0.326947 -0.071559 -0.0628638 0.383455 -0.0736696 
-0.0392382 0.383455 -0.0736696 -0.0777491 0.394904 -0.0677639 -0.0532255 0.394878 -0.0678378 
-0.105706 0.213974 -0.0602176 -0.104812 0.249391 -0.0603003 -0.0959368 0.293193 -0.061702 
-0.0738281 0.293193 -0.061702 -0.0958336 0.313682 -0.0644801 -0.078225 0.311418 -0.067246 
-0.069335 0.313682 -0.0644801 -0.0527241 0.311479 -0.0673218 -0.0230244 0.317929 -0.0621004 
-0.0676088 0.335242 -0.0641606 -0.0383165 0.335242 -0.0641606 -0.0959368 0.372275 -0.061702 
-0.0738281 0.372275 -0.061702 -0.0643667 0.379216 -0.0609185 -0.0415586 0.379216 -0.0609185 
-0.0244903 0.387464 -0.0665357 -0.000463783 0.387411 -0.0664085 -0.0948852 0.392371 -0.0633915 
-0.0702834 0.392371 -0.0633915 -0.0951791 0.2132 -0.0593916 -0.0942847 0.248617 -0.0594743 
-0.129187 0.324366 -0.0568124 -0.101092 0.324376 -0.0571896 -0.0283087 0.331132 -0.0534295 
-0.00333157 0.3341 -0.0596936 -0.0266745 0.382486 -0.055306 -0.00359617 0.382559 -0.0551319 
-0.127029 0.385519 -0.059079 -0.103304 0.38547 -0.0593526 -0.0984102 0.207707 -0.0487251 
-0.0883793 0.208433 -0.048088 -0.0991135 0.240746 -0.049404 -0.089082 0.241473 -0.0487668 
-0.0475134 0.271353 -0.0475088 -0.0990584 0.208412 -0.0386939 -0.0890274 0.209139 -0.0380567 
-0.0997614 0.241452 -0.0393728 -0.08973 0.242178 -0.0387355 -0.116002 0.299401 -0.0443527 
-0.0926957 0.299401 -0.0443527 -0.0653963 0.295825 -0.0411037 -0.0420902 0.296093 -0.0410576 
-0.140533 0.315451 -0.0437413 -0.114633 0.315451 -0.0437413 -0.0958336 0.313709 -0.0379804 
-0.069335 0.313709 -0.0379804 -0.0264854 0.321167 -0.0408529 -0.0457479 0.34193 -0.045537 
-0.0659968 0.377229 -0.0420083 -0.0427915 0.377252 -0.0420997 -0.116002 0.383421 -0.0443527 
-0.0926957 0.383421 -0.0443527 -0.0640132 0.381931 -0.0371597 -0.0411045 0.381976 -0.0371144 
-0.024615 0.387434 -0.0425008 -0.00057309 0.387395 -0.0423754 -0.139651 0.392646 -0.0428593 
-0.115514 0.392646 -0.0428593 -0.0948696 0.392371 -0.0388037 -0.0702991 0.392371 -0.0388037 
-0.0599872 0.29069 -0.0309151 -0.037679 0.29069 -0.0309151 -0.0291712 0.325344 -0.0370163 
[...]
POINT_DATA 1352
FIELD FieldData 8
id 1 1352 int
3781 3801 3749 3970 3894 3730 3789 3994 3744 
3858 3023 3745 2648 3927 2739 3985 3917 3359 
2755 2901 3952 3937 3738 3785 3852 3823 3296 
3981 3180 3024 3966 3685 3908 3932 3808 3931 
3844 3586 3773 3360 3877 3960 3716 3135 3244 
3830 3961 3805 3896 3943 3242 3939 3903 3731 
3918 3714 3757 3920 3879 3727 2484 3938 3814 
3182 3885 3853 3787 3815 3975 3831 3873 3971 
3746 3297 3919 3925 3786 3820 2961 3962 3847 
3906 3782 3954 3720 3688 2902 2482 3836 3982 
3825 3803 3950 3988 3854 3788 3940 3775 3587 
3955 3719 3909 3406 3911 3747 3996 3686 3765 
3631 3910 3760 2823 3761 3871 3968 3768 2550 
3864 3325 5082 5086 3863 2509 5083 5087 3721 
3941 3136 3776 3632 3875 3689 3969 3956 3729 
4870 4866 4867 4871 4794 4798 4868 4869 4865 
4796 4800 4442 4446 4444 4448 4018 4022 4872 
4795 4799 4797 4793 4020 4786 4790 4788 4443 
4447 4024 4445 4690 4694 4792 4692 4696 4226 
4230 4019 4023 4228 4232 4787 4042 4021 4017 
4441 4791 4602 4789 4785 4606 4330 4334 4046 
4604 4332 4336 4924 4928 4691 4695 4693 4689 
4286 4227 4231 4605 4608 4044 4048 4284 4229 
4225 5052 5050 5056 5054 4922 4926 4850 4854 
4921 4852 4856 4594 4084 4088 4596 4600 4086 
4090 4288 5053 5051 5049 5055 4923 4927 4925 
4598 4603 4607 4331 4335 4058 4080 4043 4601 
4060 4064 4333 4329 4914 4918 4851 4855 4920 
4916 4853 4849 4282 4047 4045 4041 4285 4281 
4915 4917 4595 4599 4194 4283 4198 4287 4138 
4026 4030 4597 4593 4028 4032 4140 4144 4196 
4200 4919 4913 4085 4089 4059 4063 4061 4057 
4087 4091 4938 4942 4940 4944 4658 4939 4943 
4941 4937 4475 4479 4483 4487 4258 4262 4195 
4199 4139 4660 4485 4474 4477 4481 4029 4025 
4141 4137 4260 4264 4197 4193 4578 4582 4092 
4027 4031 4580 4584 4954 4956 4659 4096 4661 
4094 4074 4955 4957 4476 4480 4259 4263 4076 
4478 4482 4078 4095 4261 4257 4579 4583 4093 
4581 4577 4882 4075 4082 4073 4884 4362 4366 
4077 4364 4368 4079 4083 4883 4885 4881 4346 
4350 4081 4348 4352 4674 4678 4162 4166 4676 
4680 4164 4168 4363 4367 4314 4318 4012 4365 
4361 4316 4320 4962 4966 4964 4968 4634 4638 
4484 4488 4347 4351 4354 4636 4270 4034 4640 
4268 4486 4473 4349 4008 4345 4152 4356 4963 
4967 4965 4961 4675 4679 4498 4146 4150 4163 
4266 4167 4677 4673 4038 4148 4165 4036 4161 
4040 4272 4734 4730 4355 4115 4119 4736 4732 
4637 4035 4004 4269 4002 4117 4121 4068 4072 
4770 4774 4635 4639 4315 4772 4776 4210 4214 
4154 4158 4319 4633 4005 4500 4156 4160 4357 
4313 4212 4216 4731 4735 4530 4499 4534 4234 
4387 4391 4238 4066 4070 4127 4001 4267 4271 
4733 4729 4071 4389 4039 4536 4317 4393 4006 
4240 4149 4114 4037 4236 4125 4265 4159 4147 
4151 4123 4145 4069 4033 4065 4771 4775 4450 
4454 4538 4586 4590 4418 4422 4239 4773 4769 
4116 4155 4120 4067 4124 4452 4456 4532 4592 
4128 4003 4007 4501 4420 4424 4118 4157 4122 
4153 5084 5088 4531 4535 4235 4388 4211 4215 
4178 4182 4533 4529 4126 4113 4180 4184 4237 
4233 4296 4213 4209 5085 5081 4591 4559 4392 
4290 4294 4338 4342 4588 4557 4561 4394 4292 
4340 4344 4451 4455 4539 4587 4611 4615 4506 
4510 4555 4419 4423 4395 4399 4724 4541 4453 
4449 4613 4589 4585 4508 4512 4421 4417 4397 
4386 5034 5038 5036 5040 4623 4738 4742 4291 
4295 4179 4183 4617 4390 4181 4177 4293 4289 
5035 5039 4619 5037 5033 4874 4878 4830 4826 
4814 4621 4722 4726 4556 4560 4339 4343 4740 
4744 4610 4050 4728 4396 4558 4562 4052 4341 
4337 4810 4880 4828 4832 4812 4816 4612 4616 
4507 4511 4400 4725 4614 4618 4509 4505 4398 
4385 4875 4879 4827 4831 4624 4876 4739 4723 
4727 4743 4829 4825 4741 4737 4721 4566 4553 
4620 4811 4622 4877 4815 4873 4568 4564 4813 
4809 4563 4567 4609 4051 4055 4565 4554 4053 
4888 3899 3849 3161 3818 3405 3838 3755 3945 
3811 3784 3440 3876 3972 3934 3762 3860 3778 
3025 2591 2481 3717 3900 3957 3978 3964 3856 
3806 3741 2927 2989 3922 3711 3867 3723 3888 
3869 2483 3441 3737 3324 3850 3614 5058 5047 
3851 3819 3809 3712 5043 3263 3914 3162 3766 
3890 2824 3771 2751 3691 3208 3812 3758 3991 
3840 3665 2962 2690 3791 3946 2748 3770 3732 
3889 3995 3442 2749 3668 3779 3764 3828 3870 
5042 5046 3718 3777 3385 3774 3916 3692 3763 
3999 3913 3993 3979 3974 3923 2963 3924 3998 
3772 2790 3667 3857 2928 3947 3750 3848 3843 
3739 3792 3693 3810 3790 3715 3892 3935 3751 
3443 3461 3835 3733 3298 3861 3846 3958 3833 
5066 5070 5071 5067 3936 3754 2753 3872 3977 
3725 3883 3930 3926 3326 2868 3798 3444 4902 
4898 4904 4900 4714 4718 4716 4720 4903 4899 
4897 4901 4994 4998 4996 5000 4834 4838 4715 
4719 4836 4840 4626 4630 4717 4713 4628 4632 
4995 4999 4997 4993 4515 4519 4517 4521 4835 
4839 4833 4837 4402 4406 4404 4408 4972 4976 
4974 4978 4627 4631 4629 4625 4973 4977 4975 
4979 4702 4698 4523 4527 4516 4520 4700 4704 
4525 4514 4518 4522 4403 4407 4405 4401 4980 
4984 4982 4986 4426 4430 4428 4432 4981 4985 
4983 4987 4754 4758 4703 4699 4524 4528 4756 
4760 4701 4697 4526 4513 5064 5060 4490 4494 
4370 4753 4142 4298 4492 4496 4372 4376 5010 
5014 5057 5061 5012 5016 4755 4759 4762 4766 
4427 4431 4302 4757 4374 4764 4768 4429 4425 
4300 4304 5011 5015 4890 5013 5009 4894 4892 
4896 4491 4495 4202 4206 4493 4489 4204 4208 
4946 4891 4895 4763 4767 4893 4662 4889 4686 
4682 4546 4550 4458 4684 4548 4552 4460 4992 
4950 4988 4948 4952 4761 4462 4371 4375 4765 
4303 4143 4688 4299 4664 4464 4373 4369 4301 
4297 4947 4951 4989 4971 4990 4970 4949 4945 
4666 4670 4459 4463 4203 4207 4668 4672 4457 
4461 4205 4201 4958 4953 4991 4969 4960 4663 
4683 4687 4646 4642 4547 4551 4685 4657 4681 
4648 4644 4549 4545 4959 4862 4860 4864 4667 
4671 4669 4665 5044 5048 4858 5045 5041 4859 
4863 4861 4857 4647 4643 4641 4645 4062 5062 
5063 5059 4886 4097 4654 5002 5006 4887 4802 
4806 5004 5008 4804 4808 4650 4652 4656 4010 
5003 5007 5005 5001 4750 4378 4382 4748 4752 
4306 4310 4384 4380 4014 4308 4312 4803 4807 
4746 4805 4801 4651 4655 4653 4649 4358 4016 
4360 4192 5076 5080 4747 4751 4706 4710 4502 
4749 4745 4540 4186 4708 4712 4381 4377 5077 
5073 4379 4383 4307 4190 4311 4243 4247 4013 
4009 4188 4309 4305 4245 4249 4707 4711 4103 
4709 4504 4185 4101 4353 4105 4503 4705 4011 
4015 4542 4410 4414 4187 4191 4359 4544 4099 
4412 4416 4324 4328 4189 4246 4322 4326 4244 
4248 4100 4104 4102 4106 4250 4906 4910 4908 
4912 4434 4438 4436 4440 4497 5026 5027 5031 
5030 5028 5029 5025 5032 4907 4911 4543 4909 
4905 4411 4415 4255 4130 4134 4537 4413 4409 
4325 4321 4253 4242 5018 5022 5072 5068 5020 
5024 4218 4222 4323 4327 4433 4132 4136 4220 
4224 5019 5023 5065 5069 4842 4846 5021 5017 
4818 4822 4820 4824 4435 4439 4251 4170 4174 
4437 4172 4176 4930 4934 4844 4848 4466 4470 
4054 4276 4468 4472 4056 4843 4847 4819 4823 
4782 4932 4936 4821 4817 4274 4278 4570 4574 
4252 4256 4131 4135 4107 4111 4572 4576 4280 
4133 4129 4109 4098 4221 4217 4254 4241 4931 
4935 4933 4929 4778 4845 4841 4784 4780 4219 
4223 4171 4175 4277 4173 4169 4783 4779 4777 
4275 4279 4571 4575 4781 4467 4471 4108 4112 
4573 4569 4273 4469 4465 4049 4110 5074 5078 
5075 5079 
type 1 1352 int
2 2 2 2 2 2 2 2 2 
2 2 2 2 2 2 2 2 2 
2 2 2 2 2 2 2 2 2 
2 2 2 2 2 2 2 2 2 
2 2 2 2 2 2 2 2 2 
2 2 2 2 2 2 2 2 2 
2 2 2 2 2 2 2 2 2 
2 2 2 2 2 2 2 2 2 
2 2 2 2 2 2 2 2 2 
2 2 2 2 2 2 2 2 2 
2 2 2 2 2 2 2 2 2 
2 2 2 2 2 2 2 2 2 
2 2 2 2 2 2 2 2 2 
2 2 2 2 2 2 2 2 2 
2 2 2 2 2 2 2 2 2 
2 2 2 2 2 2 2 2 2 
2 2 2 2 2 2 2 2 2 
2 2 2 2 2 2 2 2 2 
2 2 2 2 2 2 2 2 2 
2 2 2 2 2 2 2 2 2 
2 2 2 2 2 2 2 2 2 
2 2 2 2 2 2 2 2 2 
2 2 2 2 2 2 2 2 2 
2 2 2 2 2 2 2 2 2 
2 2 2 2 2 2 2 2 2 
2 2 2 2 2 2 2 2 2 
2 2 2 2 2 2 2 2 2 
2 2 2 2 2 2 2 2 2 
2 2 2 2 2 2 2 2 2 
2 2 2 2 2 2 2 2 2 
2 2 2 2 2 2 2 2 2 
2 2 2 2 2 2 2 2 2 
2 2 2 2 2 2 2 2 2 
2 2 2 2 2 2 2 2 2 
2 2 2 2 2 2 2 2 2 
2 2 2 2 2 2 2 2 2 
2 2 2 2 2 2 2 2 2 
2 2 2 2 2 2 2 2 2 
2 2 2 2 2 2 2 2 2 
2 2 2 2 2 2 2 2 2 
2 2 2 2 2 2 2 2 2 
2 2 2 2 2 2 2 2 2 
2 2 2 2 2 2 2 2 2 
2 2 2 2 2 2 2 2 2 
2 2 2 2 2 2 2 2 2 
2 2 2 2 2 2 2 2 2 
2 2 2 2 2 2 2 2 2 
2 2 2 2 2 2 2 2 2 
2 2 2 2 2 2 2 2 2 
2 2 2 2 2 2 2 2 2 
2 2 2 2 2 2 2 2 2 
2 2 2 2 2 2 2 2 2 
2 2 2 2 2 2 2 2 2 
2 2 2 2 2 2 2 2 2 
2 2 2 2 2 2 2 2 2 
2 2 2 2 2 2 2 2 2 
2 2 2 2 2 2 2 2 2 
2 2 2 2 2 2 2 2 2 
2 2 2 2 2 2 2 2 2 
2 2 2 2 2 2 2 2 2 
2 2 2 2 2 2 2 2 2 
2 2 2 2 2 2 2 2 2 
2 2 2 2 2 2 2 2 2 
2 2 2 2 2 2 2 2 2 
2 2 2 2 2 2 2 2 2 
2 2 2 2 2 2 2 2 2 
2 2 2 2 2 2 2 2 2 
2 2 2 2 2 2 2 2 2 
2 2 2 2 2 2 2 2 2 
2 2 2 2 2 2 2 2 2 
2 2 2 2 2 2 2 2 2 
2 2 2 2 2 2 2 2 2 
2 2 2 2 2 2 2 2 2 
2 2 2 2 2 2 2 2 2 
2 2 2 2 2 2 2 2 2 
2 2 2 2 2 2 2 2 2 
2 2 2 2 2 2 2 2 2 
2 2 2 2 2 2 2 2 2 
2 2 2 2 2 2 2 2 2 
2 2 2 2 2 2 2 2 2 
2 2 2 2 2 2 2 2 2 
2 2 2 2 2 2 2 2 2 
2 2 2 2 2 2 2 2 2 
2 2 2 2 2 2 2 2 2 
2 2 2 2 2 2 2 2 2 
2 2 2 2 2 2 2 2 2 
2 2 2 2 2 2 2 2 2 
2 2 2 2 2 2 2 2 2 
2 2 2 2 2 2 2 2 2 
2 2 2 2 2 2 2 2 2 
2 2 2 2 2 2 2 2 2 
2 2 2 2 2 2 2 2 2 
2 2 2 2 2 2 2 2 2 
2 2 2 2 2 2 2 2 2 
2 2 2 2 2 2 2 2 2 
2 2 2 2 2 2 2 2 2 
2 2 2 2 2 2 2 2 2 
2 2 2 2 2 2 2 2 2 
2 2 2 2 2 2 2 2 2 
2 2 2 2 2 2 2 2 2 
2 2 2 2 2 2 2 2 2 
2 2 2 2 2 2 2 2 2 
2 2 2 2 2 2 2 2 2 
2 2 2 2 2 2 2 2 2 
2 2 2 2 2 2 2 2 2 
2 2 2 2 2 2 2 2 2 
2 2 2 2 2 2 2 2 2 
2 2 2 2 2 2 2 2 2 
2 2 2 2 2 2 2 2 2 
2 2 2 2 2 2 2 2 2 
2 2 2 2 2 2 2 2 2 
2 2 2 2 2 2 2 2 2 
2 2 2 2 2 2 2 2 2 
2 2 2 2 2 2 2 2 2 
2 2 2 2 2 2 2 2 2 
2 2 2 2 2 2 2 2 2 
2 2 2 2 2 2 2 2 2 
2 2 2 2 2 2 2 2 2 
2 2 2 2 2 2 2 2 2 
2 2 2 2 2 2 2 2 2 
2 2 2 2 2 2 2 2 2 
2 2 2 2 2 2 2 2 2 
2 2 2 2 2 2 2 2 2 
2 2 2 2 2 2 2 2 2 
2 2 2 2 2 2 2 2 2 
2 2 2 2 2 2 2 2 2 
2 2 2 2 2 2 2 2 2 
2 2 2 2 2 2 2 2 2 
2 2 2 2 2 2 2 2 2 
2 2 2 2 2 2 2 2 2 
2 2 2 2 2 2 2 2 2 
2 2 2 2 2 2 2 2 2 
2 2 2 2 2 2 2 2 2 
2 2 2 2 2 2 2 2 2 
2 2 2 2 2 2 2 2 2 
2 2 2 2 2 2 2 2 2 
2 2 2 2 2 2 2 2 2 
2 2 2 2 2 2 2 2 2 
2 2 2 2 2 2 2 2 2 
2 2 2 2 2 2 2 2 2 
2 2 2 2 2 2 2 2 2 
2 2 2 2 2 2 2 2 2 
2 2 2 2 2 2 2 2 2 
2 2 2 2 2 2 2 2 2 
2 2 2 2 2 2 2 2 2 
2 2 2 2 2 2 2 2 2 
2 2 2 2 2 2 2 2 2 
2 2 2 2 2 2 2 2 2 
2 2 2 2 2 2 2 2 2 
2 2 2 2 2 2 2 2 2 
2 2 
i 3 1352 int
0 0 0 0 0 0 0 0 0 
0 0 0 0 0 0 0 0 0 
0 0 0 0 0 0 0 0 0 
0 0 0 0 0 0 0 0 0 
0 0 0 0 0 0 0 0 0 
0 0 0 0 0 0 0 0 0 
0 0 0 0 0 0 0 0 0 
0 0 0 0 0 0 0 0 0 
0 0 0 0 0 0 0 0 0 
0 0 0 0 0 0 0 0 0 
0 0 0 0 0 0 0 0 0 
0 0 0 0 0 0 0 0 0 
0 0 0 0 0 0 0 0 0 
0 0 0 0 0 0 0 0 0 
0 0 0 0 0 0 0 0 0 
0 0 0 0 0 0 0 0 0 
0 0 0 0 0 0 0 0 0 
0 0 0 0 0 0 0 0 0 
0 0 0 0 0 0 0 0 0 
0 0 0 0 0 0 0 0 0 
0 0 0 0 0 0 0 0 0 
0 0 0 0 0 0 0 0 0 
0 0 0 0 0 0 0 0 0 
0 0 0 0 0 0 0 0 0 
0 0 0 0 0 0 0 0 0 
0 0 0 0 0 0 0 0 0 
0 0 0 0 0 0 0 0 0 
0 0 0 0 0 0 0 0 0 
0 0 0 0 0 0 0 0 0 
0 0 0 0 0 0 0 0 0 
0 0 0 0 0 0 0 0 0 
0 0 0 0 0 0 0 0 0 
0 0 0 0 0 0 0 0 0 
0 0 0 0 0 0 0 0 0 
0 0 0 0 0 0 0 0 0 
0 0 0 0 0 0 0 0 0 
0 0 0 0 0 0 0 0 0 
0 0 0 0 0 0 0 0 0 
0 0 0 0 0 0 0 0 0 
0 0 0 0 0 0 0 0 0 
0 0 0 0 0 0 0 0 0 
0 0 0 0 0 0 0 0 0 
0 0 0 0 0 0 0 0 0 
0 0 0 0 0 0 0 0 0 
0 0 0 0 0 0 0 0 0 
0 0 0 0 0 0 0 0 0 
0 0 0 0 0 0 0 0 0 
0 0 0 0 0 0 0 0 0 
0 0 0 0 0 0 0 0 0 
0 0 0 0 0 0 0 0 0 
0 0 0 0 0 0 0 0 0 
0 0 0 0 0 0 0 0 0 
0 0 0 0 0 0 0 0 0 
0 0 0 0 0 0 0 0 0 
0 0 0 0 0 0 0 0 0 
0 0 0 0 0 0 0 0 0 
0 0 0 0 0 0 0 0 0 
0 0 0 0 0 0 0 0 0 
0 0 0 0 0 0 0 0 0 
0 0 0 0 0 0 0 0 0 
0 0 0 0 0 0 0 0 0 
0 0 0 0 0 0 0 0 0 
0 0 0 0 0 0 0 0 0 
0 0 0 0 0 0 0 0 0 
0 0 0 0 0 0 0 0 0 
0 0 0 0 0 0 0 0 0 
0 0 0 0 0 0 0 0 0 
0 0 0 0 0 0 0 0 0 
0 0 0 0 0 0 0 0 0 
0 0 0 0 0 0 0 0 0 
0 0 0 0 0 0 0 0 0 
0 0 0 0 0 0 0 0 0 
0 0 0 0 0 0 0 0 0 
0 0 0 0 0 0 0 0 0 
0 0 0 0 0 0 0 0 0 
0 0 0 0 0 0 0 0 0 
0 0 0 0 0 0 0 0 0 
0 0 0 0 0 0 0 0 0 
0 0 0 0 0 0 0 0 0 
0 0 0 0 0 0 0 0 0 
0 0 0 0 0 0 0 0 0 
0 0 0 0 0 0 0 0 0 
0 0 0 0 0 0 0 0 0 
0 0 0 0 0 0 0 0 0 
0 0 0 0 0 0 0 0 0 
0 0 0 0 0 0 0 0 0 
0 0 0 0 0 0 0 0 0 
0 0 0 0 0 0 0 0 0 
0 0 0 0 0 0 0 0 0 
0 0 0 0 0 0 0 0 0 
0 0 0 0 0 0 0 0 0 
0 0 0 0 0 0 0 0 0 
0 0 0 0 0 0 0 0 0 
0 0 0 0 0 0 0 0 0 
0 0 0 0 0 0 0 0 0 
0 0 0 0 0 0 0 0 0 
0 0 0 0 0 0 0 0 0 
0 0 0 0 0 0 0 0 0 
0 0 0 0 0 0 0 0 0 
0 0 0 0 0 0 0 0 0 
0 0 0 0 0 0 0 0 0 
0 0 0 0 0 0 0 0 0 
0 0 0 0 0 0 0 0 0 
0 0 0 0 0 0 0 0 0 
0 0 0 0 0 0 0 0 0 
0 0 0 0 0 0 0 0 0 
0 0 0 0 0 0 0 0 0 
0 0 0 0 0 0 0 0 0 
0 0 0 0 0 0 0 0 0 
0 0 0 0 0 0 0 0 0 
0 0 0 0 0 0 0 0 0 
0 0 0 0 0 0 0 0 0 
0 0 0 0 0 0 0 0 0 
0 0 0 0 0 0 0 0 0 
0 0 0 0 0 0 0 0 0 
0 0 0 0 0 0 0 0 0 
0 0 0 0 0 0 0 0 0 
0 0 0 0 0 0 0 0 0 
0 0 0 0 0 0 0 0 0 
0 0 0 0 0 0 0 0 0 
0 0 0 0 0 0 0 0 0 
0 0 0 0 0 0 0 0 0 
0 0 0 0 0 0 0 0 0 
0 0 0 0 0 0 0 0 0 
0 0 0 0 0 0 0 0 0 
0 0 0 0 0 0 0 0 0 
0 0 0 0 0 0 0 0 0 
0 0 0 0 0 0 0 0 0 
0 0 0 0 0 0 0 0 0 
0 0 0 0 0 0 0 0 0 
0 0 0 0 0 0 0 0 0 
0 0 0 0 0 0 0 0 0 
0 0 0 0 0 0 0 0 0 
0 0 0 0 0 0 0 0 0 
0 0 0 0 0 0 0 0 0 
0 0 0 0 0 0 0 0 0 
0 0 0 0 0 0 0 0 0 
0 0 0 0 0 0 0 0 0 
0 0 0 0 0 0 0 0 0 
0 0 0 0 0 0 0 0 0 
0 0 0 0 0 0 0 0 0 
0 0 0 0 0 0 0 0 0 
0 0 0 0 0 0 0 0 0 
0 0 0 0 0 0 0 0 0 
0 0 0 0 0 0 0 0 0 
0 0 0 0 0 0 0 0 0 
0 0 0 0 0 0 0 0 0 
0 0 0 0 0 0 0 0 0 
0 0 0 0 0 0 0 0 0 
0 0 0 0 0 0 0 0 0 
0 0 0 0 0 0 0 0 0 
0 0 0 0 0 0 0 0 0 
0 0 0 0 0 0 0 0 0 
0 0 0 0 0 0 0 0 0 
0 0 0 0 0 0 0 0 0 
0 0 0 0 0 0 0 0 0 
0 0 0 0 0 0 0 0 0 
0 0 0 0 0 0 0 0 0 
0 0 0 0 0 0 0 0 0 
0 0 0 0 0 0 0 0 0 
0 0 0 0 0 0 0 0 0 
0 0 0 0 0 0 0 0 0 
0 0 0 0 0 0 0 0 0 
0 0 0 0 0 0 0 0 0 
0 0 0 0 0 0 0 0 0 
0 0 0 0 0 0 0 0 0 
0 0 0 0 0 0 0 0 0 
0 0 0 0 0 0 0 0 0 
0 0 0 0 0 0 0 0 0 
0 0 0 0 0 0 0 0 0 
0 0 0 0 0 0 0 0 0 
0 0 0 0 0 0 0 0 0 
0 0 0 0 0 0 0 0 0 
0 0 0 0 0 0 0 0 0 
0 0 0 0 0 0 0 0 0 
0 0 0 0 0 0 0 0 0 
0 0 0 0 0 0 0 0 0 
0 0 0 0 0 0 0 0 0 
0 0 0 0 0 0 0 0 0 
0 0 0 0 0 0 0 0 0 
0 0 0 0 0 0 0 0 0 
0 0 0 0 0 0 0 0 0 
0 0 0 0 0 0 0 0 0 
0 0 0 0 0 0 0 0 0 
0 0 0 0 0 0 0 0 0 
0 0 0 0 0 0 0 0 0 
0 0 0 0 0 0 0 0 0 
0 0 0 0 0 0 0 0 0 
0 0 0 0 0 0 0 0 0 
0 0 0 0 0 0 0 0 0 
0 0 0 0 0 0 0 0 0 
0 0 0 0 0 0 0 0 0 
0 0 0 0 0 0 0 0 0 
0 0 0 0 0 0 0 0 0 
0 0 0 0 0 0 0 0 0 
0 0 0 0 0 0 0 0 0 
0 0 0 0 0 0 0 0 0 
0 0 0 0 0 0 0 0 0 
0 0 0 0 0 0 0 0 0 
0 0 0 0 0 0 0 0 0 
0 0 0 0 0 0 0 0 0 
0 0 0 0 0 0 0 0 0 
0 0 0 0 0 0 0 0 0 
0 0 0 0 0 0 0 0 0 
0 0 0 0 0 0 0 0 0 
0 0 0 0 0 0 0 0 0 
0 0 0 0 0 0 0 0 0 
0 0 0 0 0 0 0 0 0 
0 0 0 0 0 0 0 0 0 
0 0 0 0 0 0 0 0 0 
0 0 0 0 0 0 0 0 0 
0 0 0 0 0 0 0 0 0 
0 0 0 0 0 0 0 0 0 
0 0 0 0 0 0 0 0 0 
0 0 0 0 0 0 0 0 0 
0 0 0 0 0 0 0 0 0 
0 0 0 0 0 0 0 0 0 
0 0 0 0 0 0 0 0 0 
0 0 0 0 0 0 0 0 0 
0 0 0 0 0 0 0 0 0 
0 0 0 0 0 0 0 0 0 
0 0 0 0 0 0 0 0 0 
0 0 0 0 0 0 0 0 0 
0 0 0 0 0 0 0 0 0 
0 0 0 0 0 0 0 0 0 
0 0 0 0 0 0 0 0 0 
0 0 0 0 0 0 0 0 0 
0 0 0 0 0 0 0 0 0 
0 0 0 0 0 0 0 0 0 
0 0 0 0 0 0 0 0 0 
0 0 0 0 0 0 0 0 0 
0 0 0 0 0 0 0 0 0 
0 0 0 0 0 0 0 0 0 
0 0 0 0 0 0 0 0 0 
0 0 0 0 0 0 0 0 0 
0 0 0 0 0 0 0 0 0 
0 0 0 0 0 0 0 0 0 
0 0 0 0 0 0 0 0 0 
0 0 0 0 0 0 0 0 0 
0 0 0 0 0 0 0 0 0 
0 0 0 0 0 0 0 0 0 
0 0 0 0 0 0 0 0 0 
0 0 0 0 0 0 0 0 0 
0 0 0 0 0 0 0 0 0 
0 0 0 0 0 0 0 0 0 
0 0 0 0 0 0 0 0 0 
0 0 0 0 0 0 0 0 0 
0 0 0 0 0 0 0 0 0 
0 0 0 0 0 0 0 0 0 
0 0 0 0 0 0 0 0 0 
0 0 0 0 0 0 0 0 0 
0 0 0 0 0 0 0 0 0 
0 0 0 0 0 0 0 0 0 
0 0 0 0 0 0 0 0 0 
0 0 0 0 0 0 0 0 0 
0 0 0 0 0 0 0 0 0 
0 0 0 0 0 0 0 0 0 
0 0 0 0 0 0 0 0 0 
0 0 0 0 0 0 0 0 0 
0 0 0 0 0 0 0 0 0 
0 0 0 0 0 0 0 0 0 
0 0 0 0 0 0 0 0 0 
0 0 0 0 0 0 0 0 0 
0 0 0 0 0 0 0 0 0 
0 0 0 0 0 0 0 0 0 
0 0 0 0 0 0 0 0 0 
0 0 0 0 0 0 0 0 0 
0 0 0 0 0 0 0 0 0 
0 0 0 0 0 0 0 0 0 
0 0 0 0 0 0 0 0 0 
0 0 0 0 0 0 0 0 0 
0 0 0 0 0 0 0 0 0 
0 0 0 0 0 0 0 0 0 
0 0 0 0 0 0 0 0 0 
0 0 0 0 0 0 0 0 0 
0 0 0 0 0 0 0 0 0 
0 0 0 0 0 0 0 0 0 
0 0 0 0 0 0 0 0 0 
0 0 0 0 0 0 0 0 0 
0 0 0 0 0 0 0 0 0 
0 0 0 0 0 0 0 0 0 
0 0 0 0 0 0 0 0 0 
0 0 0 0 0 0 0 0 0 
0 0 0 0 0 0 0 0 0 
0 0 0 0 0 0 0 0 0 
0 0 0 0 0 0 0 0 0 
0 0 0 0 0 0 0 0 0 
0 0 0 0 0 0 0 0 0 
0 0 0 0 0 0 0 0 0 
0 0 0 0 0 0 0 0 0 
0 0 0 0 0 0 0 0 0 
0 0 0 0 0 0 0 0 0 
0 0 0 0 0 0 0 0 0 
0 0 0 0 0 0 0 0 0 
0 0 0 0 0 0 0 0 0 
0 0 0 0 0 0 0 0 0 
0 0 0 0 0 0 0 0 0 
0 0 0 0 0 0 0 0 0 
0 0 0 0 0 0 0 0 0 
0 0 0 0 0 0 0 0 0 
0 0 0 0 0 0 0 0 0 
0 0 0 0 0 0 0 0 0 
0 0 0 0 0 0 0 0 0 
0 0 0 0 0 0 0 0 0 
0 0 0 0 0 0 0 0 0 
0 0 0 0 0 0 0 0 0 
0 0 0 0 0 0 0 0 0 
0 0 0 0 0 0 0 0 0 
0 0 0 0 0 0 0 0 0 
0 0 0 0 0 0 0 0 0 
0 0 0 0 0 0 0 0 0 
0 0 0 0 0 0 0 0 0 
0 0 0 0 0 0 0 0 0 
0 0 0 0 0 0 0 0 0 
0 0 0 0 0 0 0 0 0 
0 0 0 0 0 0 0 0 0 
0 0 0 0 0 0 0 0 0 
0 0 0 0 0 0 0 0 0 
0 0 0 0 0 0 0 0 0 
0 0 0 0 0 0 0 0 0 
0 0 0 0 0 0 0 0 0 
0 0 0 0 0 0 0 0 0 
0 0 0 0 0 0 0 0 0 
0 0 0 0 0 0 0 0 0 
0 0 0 0 0 0 0 0 0 
0 0 0 0 0 0 0 0 0 
0 0 0 0 0 0 0 0 0 
0 0 0 0 0 0 0 0 0 
0 0 0 0 0 0 0 0 0 
0 0 0 0 0 0 0 0 0 
0 0 0 0 0 0 0 0 0 
0 0 0 0 0 0 0 0 0 
0 0 0 0 0 0 0 0 0 
0 0 0 0 0 0 0 0 0 
0 0 0 0 0 0 0 0 0 
0 0 0 0 0 0 0 0 0 
0 0 0 0 0 0 0 0 0 
0 0 0 0 0 0 0 0 0 
0 0 0 0 0 0 0 0 0 
0 0 0 0 0 0 0 0 0 
0 0 0 0 0 0 0 0 0 
0 0 0 0 0 0 0 0 0 
0 0 0 0 0 0 0 0 0 
0 0 0 0 0 0 0 0 0 
0 0 0 0 0 0 0 0 0 
0 0 0 0 0 0 0 0 0 
0 0 0 0 0 0 0 0 0 
0 0 0 0 0 0 0 0 0 
0 0 0 0 0 0 0 0 0 
0 0 0 0 0 0 0 0 0 
0 0 0 0 0 0 0 0 0 
0 0 0 0 0 0 0 0 0 
0 0 0 0 0 0 0 0 0 
0 0 0 0 0 0 0 0 0 
0 0 0 0 0 0 0 0 0 
0 0 0 0 0 0 0 0 0 
0 0 0 0 0 0 0 0 0 
0 0 0 0 0 0 0 0 0 
0 0 0 0 0 0 0 0 0 
0 0 0 0 0 0 0 0 0 
0 0 0 0 0 0 0 0 0 
0 0 0 0 0 0 0 0 0 
0 0 0 0 0 0 0 0 0 
0 0 0 0 0 0 0 0 0 
0 0 0 0 0 0 0 0 0 
0 0 0 0 0 0 0 0 0 
0 0 0 0 0 0 0 0 0 
0 0 0 0 0 0 0 0 0 
0 0 0 0 0 0 0 0 0 
0 0 0 0 0 0 0 0 0 
0 0 0 0 0 0 0 0 0 
0 0 0 0 0 0 0 0 0 
0 0 0 0 0 0 0 0 0 
0 0 0 0 0 0 0 0 0 
0 0 0 0 0 0 0 0 0 
0 0 0 0 0 0 0 0 0 
0 0 0 0 0 0 0 0 0 
0 0 0 0 0 0 0 0 0 
0 0 0 0 0 0 0 0 0 
0 0 0 0 0 0 0 0 0 
0 0 0 0 0 0 0 0 0 
0 0 0 0 0 0 0 0 0 
0 0 0 0 0 0 0 0 0 
0 0 0 0 0 0 0 0 0 
0 0 0 0 0 0 0 0 0 
0 0 0 0 0 0 0 0 0 
0 0 0 0 0 0 0 0 0 
0 0 0 0 0 0 0 0 0 
0 0 0 0 0 0 0 0 0 
0 0 0 0 0 0 0 0 0 
0 0 0 0 0 0 0 0 0 
0 0 0 0 0 0 0 0 0 
0 0 0 0 0 0 0 0 0 
0 0 0 0 0 0 0 0 0 
0 0 0 0 0 0 0 0 0 
0 0 0 0 0 0 0 0 0 
0 0 0 0 0 0 0 0 0 
0 0 0 0 0 0 0 0 0 
0 0 0 0 0 0 0 0 0 
0 0 0 0 0 0 0 0 0 
0 0 0 0 0 0 0 0 0 
0 0 0 0 0 0 0 0 0 
0 0 0 0 0 0 0 0 0 
0 0 0 0 0 0 0 0 0 
0 0 0 0 0 0 0 0 0 
0 0 0 0 0 0 0 0 0 
0 0 0 0 0 0 0 0 0 
0 0 0 0 0 0 0 0 0 
0 0 0 0 0 0 0 0 0 
0 0 0 0 0 0 0 0 0 
0 0 0 0 0 0 0 0 0 
0 0 0 0 0 0 0 0 0 
0 0 0 0 0 0 0 0 0 
0 0 0 0 0 0 0 0 0 
0 0 0 0 0 0 0 0 0 
0 0 0 0 0 0 0 0 0 
0 0 0 0 0 0 0 0 0 
0 0 0 0 0 0 0 0 0 
0 0 0 0 0 0 0 0 0 
0 0 0 0 0 0 0 0 0 
0 0 0 0 0 0 0 0 0 
0 0 0 0 0 0 0 0 0 
0 0 0 0 0 0 0 0 0 
0 0 0 0 0 0 0 0 0 
0 0 0 0 0 0 0 0 0 
0 0 0 0 0 0 0 0 0 
0 0 0 0 0 0 0 0 0 
0 0 0 0 0 0 0 0 0 
0 0 0 0 0 0 0 0 0 
0 0 0 0 0 0 0 0 0 
0 0 0 0 0 0 0 0 0 
0 0 0 0 0 0 0 0 0 
0 0 0 0 0 0 0 0 0 
0 0 0 0 0 0 0 0 0 
0 0 0 0 0 0 0 0 0 
0 0 0 0 0 0 0 0 0 
0 0 0 0 0 0 0 0 0 
0 0 0 0 0 0 0 0 0 
0 0 0 0 0 0 0 0 0 
0 0 0 0 0 0 0 0 0 
0 0 0 0 0 0 0 0 0 
0 0 0 0 0 0 0 0 0 
0 0 0 0 0 0 0 0 0 
0 0 0 0 0 0 0 0 0 
0 0 0 0 0 0 0 0 0 
0 0 0 0 0 0 0 0 0 
0 0 0 0 0 0 0 0 0 
0 0 0 0 0 0 0 0 0 
0 0 0 0 0 0 0 0 0 
0 0 0 0 0 0 0 0 0 
0 0 0 0 0 0 
v 3 1352 double
0.011712751963 -0.0037290385148 -0.0011384930739 0.012495207426 0.0006345144298 0.0021036559241 -0.15472652587 0.054371164332 0.017807489663 
-0.00080340767465 0.032226313364 0.019562144673 -0.0045732150366 0.00083882554838 -0.025395399488 -0.11705411993 0.011019735801 -0.0039391850849 
-0.084222972431 0.081829535961 -0.0015657430505 -0.015970077835 0.15166809512 0.0078683031147 0.0084999301845 0.1323890659 0.0081926522313 
-0.015444081516 0.16804910789 -0.083079636091 0.052127350168 -0.038472436292 -0.01117748464 -0.0056303209371 0.0085283445581 0.016039859049 
-0.027173646627 0.011902077028 0.021408443641 -0.01040054753 0.0058004044742 0.04555054737 0.0086390268809 0.038845535794 -0.0015567670795 
-0.048854073712 0.026637929028 -0.011723865227 -0.078830096885 0.05744859893 0.00019912973901 -0.056515204009 0.17504659774 -0.013208176053 
-0.017899220674 0.018956035487 -0.014433201323 0.019798951085 0.040401127349 0.0076420378047 -0.044479431725 0.065727100263 0.003206731493 
0.00042695319134 0.13846042764 0.029105660503 0.0049081045165 0.048854951722 -0.013857902743 0.060759685238 0.03755201171 -0.010385692456 
-0.024108631974 0.052866387327 -0.0092589620461 0.014362320142 0.00090167784419 -0.00010645086992 -0.016161769339 0.050630305931 0.0445799474 
0.096087284017 0.12261288527 -0.004294039915 -0.034606769077 0.14722991151 -0.037268245218 0.016239508666 -0.001562501614 0.0036778138471 
-0.1632132347 0.016458060305 -0.098071338305 0.017418324533 0.057616216922 -0.030352324845 -0.0028608687616 0.066370333775 -0.00082771263609 