# vtk DataFile Version 5.1
Generated by LIGGGHTS
ASCII
DATASET POLYDATA
POINTS 1093 float
-0.137003 0.0560558 -0.143967 -0.140267 0.0695167 -0.143475 -0.0145573 0.0740672 -0.142873 
-0.143643 0.0604811 -0.135612 -0.118833 0.0583224 -0.137656 -0.0775668 0.0598344 -0.135867 
-0.000674902 0.0638952 -0.138046 -0.082825 0.0834374 -0.141146 -0.00389125 0.102749 -0.137877 
-0.102144 0.116365 -0.142029 -0.0723709 0.123054 -0.141827 -0.137078 0.130441 -0.142321 
-0.076126 0.188973 -0.135826 -0.0490414 0.200249 -0.141919 -0.132746 0.0709692 -0.133258 
-0.0417182 0.0735785 -0.12834 -0.0854679 0.0893836 -0.132308 -0.0129148 0.0947223 -0.129677 
-0.0231202 0.11997 -0.130815 -0.143125 0.0683115 -0.123703 -0.124756 0.129953 -0.12352 
-0.139253 0.0581942 -0.114135 -0.117525 0.0588257 -0.118189 -0.0901605 0.06006 -0.114422 
-0.1325 0.0660006 -0.115222 -0.144795 0.0901501 -0.115798 -0.0350428 0.0865593 -0.117631 
-0.077033 0.10598 -0.118221 -0.121057 0.0640549 -0.108057 -0.0353606 0.076957 -0.110992 
-0.123755 0.0895377 -0.110061 -0.0200681 0.100147 -0.105365 -0.0823545 0.121247 -0.110537 
-0.024801 0.0602681 -0.102162 -0.129452 0.0664167 -0.102119 -0.0600513 0.0786062 -0.102866 
-0.11458 0.154953 -0.0991185 -0.0236098 0.193119 -0.0993607 -0.0747356 0.113123 -0.0908952 
-0.057067 0.121411 -0.09603 -0.0472308 0.0559114 -0.0825782 -0.0397365 0.067318 -0.0881748 
-0.041762 0.118062 -0.083196 -0.0687516 0.140008 -0.0887163 -0.0379987 0.0765698 -0.0766636 
-0.00549781 0.0766858 -0.0806848 -0.121097 0.0606781 -0.0728206 -0.120052 0.0764711 -0.0718503 
-0.0426664 0.0953417 -0.0724217 -0.0367175 0.200259 -0.0712687 -0.0326674 0.200213 -0.0712086 
-0.0537987 0.0597464 -0.0618035 -0.035013 0.0749705 -0.0606635 -0.114492 0.0831986 -0.0640606 
-0.0327281 0.200169 -0.0671585 -0.0367782 0.200215 -0.0672186 -0.0283992 0.0563512 -0.0557491 
-0.118911 0.0713035 -0.0535457 -0.139247 0.105236 -0.0569717 -0.126042 0.174575 -0.0556925 
-0.114425 0.174509 -0.0598616 -0.0720378 0.0586006 -0.0477202 -0.00868056 0.0752258 -0.0457627 
-0.015757 0.116456 -0.0522304 -0.0481506 0.131308 -0.0456998 -0.0253228 0.126893 -0.052749 
-0.0509424 0.0817952 -0.0404843 -0.0195712 0.0946644 -0.0443187 -0.0942167 0.10724 -0.0451126 
-0.016486 0.104624 -0.0376126 -0.109513 0.0582675 -0.023572 -0.00500552 0.0661431 -0.0260939 
-0.011134 0.0853278 -0.0256043 -0.138072 0.107843 -0.0299521 -0.010084 0.103377 -0.0293205 
-0.0593306 0.175837 -0.0233811 -0.117936 0.0565297 -0.015084 -0.0666747 0.0742374 -0.0182253 
-0.0220446 0.0827049 -0.0218492 -0.0874974 0.0911108 -0.0179664 -0.0227577 0.118578 -0.021932 
-0.126745 0.0607044 -0.0121623 -0.0230004 0.0589923 -0.00785387 -0.132145 0.0724615 -0.0110951 
-0.051395 0.0700615 -0.0117983 -0.133382 0.133537 -0.0148246 -0.137845 0.05935 -0.000318006 
-0.0855535 0.0600137 -0.00351171 -0.118973 0.0632897 -0.00525311 -0.0414687 0.0620522 -0.00671511 
-0.108244 0.0774671 -0.0023265 -0.00844675 0.0862477 -0.00169959 -0.000771845 0.128934 -0.00120074 
-0.10888 0.0614962 0.0144816 -0.0315133 0.0566313 0.0145024 -0.120941 0.0715424 0.0104846 
-0.0784365 0.124319 0.013889 -0.0245574 0.0615443 0.0196723 -0.144605 0.0681553 0.0159251 
-0.133196 0.0660654 0.0169305 -0.0204656 0.0758315 0.0161145 -0.130967 0.0826749 0.0195279 
-0.115887 0.131766 0.0211785 -0.117432 0.0555692 0.0235617 -0.119899 0.0783555 0.0287787 
-0.10823 0.0849644 0.0236969 -0.0778963 0.0808783 0.0234635 -0.0988704 0.13539 0.0239976 
-0.0179711 0.0770024 0.0369041 -0.0893287 0.0796649 0.037849 -0.0301528 0.0773583 0.0328866 
-0.0729594 0.11902 0.0329935 -0.125251 0.0983172 0.0420736 -0.134196 0.130025 0.0389731 
-0.136771 0.167771 0.0434099 -0.03867 0.0595736 0.0456277 -0.0765625 0.0684698 0.0500054 
-0.138857 0.075313 0.0460557 -0.110252 0.0705887 0.0519264 -0.0583793 0.06989 0.046227 
-0.0405135 0.0886918 0.0520323 -0.0368156 0.0604027 0.0667677 -0.136077 0.0617804 0.0632537 
-0.00843224 0.085432 0.0671699 -0.0842759 0.0579618 0.072781 -0.139004 0.0725157 0.0718727 
-0.0416773 0.144565 0.0678981 -0.0752622 0.149869 0.0714596 -0.00812826 0.0580392 0.079081 
-0.123611 0.0631315 0.0794443 -0.0317227 0.0638015 0.0789442 -0.124429 0.116117 0.0779343 
-0.127007 0.067422 0.088831 -0.0111397 0.104328 0.085206 -0.0484984 0.0700852 0.097827 
-0.0165379 0.0773395 0.0911394 -0.113835 0.0940253 0.0907937 -0.126295 0.111129 0.0979508 
-0.0303262 0.134874 0.0997996 -0.052749 0.157227 0.102309 -0.0164886 0.0809517 0.111607 
-0.0151252 0.0558136 0.119281 -0.0654569 0.156633 0.11765 -0.0922372 0.145704 0.128842 
-0.111391 0.0709887 0.141538 -0.102435 0.0976656 0.13883 -0.0958986 0.111231 0.140481 
-0.0424313 0.186998 0.141547 -0.112675 0.0589325 0.142604 -0.0818181 0.194666 0.142583 
-0.0469907 0.198525 0.142679 -0.132679 0.236748 -0.13691 -0.121993 0.236748 -0.13691 
-0.132679 0.26872 -0.13691 -0.121993 0.26872 -0.13691 -0.132679 0.236748 -0.126225 
-0.121993 0.236748 -0.126225 -0.132679 0.26872 -0.126225 -0.121993 0.26872 -0.126225 
-0.11936 0.310492 -0.125657 -0.100094 0.310513 -0.125656 -0.119391 0.377851 -0.125829 
-0.100125 0.377872 -0.125829 -0.0885757 0.209699 -0.112296 -0.0885756 0.209674 -0.104803 
-0.081083 0.209701 -0.104803 -0.081083 0.209726 -0.112296 -0.0886146 0.227722 -0.112261 
-0.0886145 0.227697 -0.104768 -0.0811219 0.227725 -0.104768 -0.0811219 0.227749 -0.112261 
-0.0443322 0.248848 -0.10973 -0.0310527 0.248848 -0.10973 -0.0443322 0.291518 -0.10973 
-0.0310527 0.291518 -0.10973 -0.11936 0.310611 -0.10639 -0.100094 0.310632 -0.106391 
-0.11939 0.377969 -0.106564 -0.100125 0.37799 -0.106563 -0.073555 0.227388 -0.0915057 
-0.0644659 0.227388 -0.0915014 -0.0923846 0.245486 -0.0950488 -0.0801029 0.245486 -0.0950488 
-0.0735551 0.252776 -0.0915047 -0.0644661 0.252776 -0.0915005 -0.0443322 0.248848 -0.0964508 
-0.0310527 0.248848 -0.0964508 -0.0589878 0.261606 -0.0927236 -0.0431142 0.261606 -0.0927236 
-0.0923846 0.284042 -0.0950488 -0.0801029 0.284042 -0.0950488 -0.0443322 0.291518 -0.0964508 
-0.0310527 0.291518 -0.0964508 -0.0589878 0.314977 -0.092734 -0.0431142 0.314977 -0.092734 
-0.0735592 0.227387 -0.0824166 -0.0644702 0.227387 -0.0824125 -0.0923846 0.245486 -0.082767 
-0.0801029 0.245486 -0.082767 -0.0757789 0.249671 -0.0854042 -0.0644703 0.252776 -0.0824115 
-0.0923846 0.284042 -0.082767 -0.0801029 0.284042 -0.082767 -0.0895267 0.227914 -0.0774006 
-0.0802382 0.227914 -0.0774006 -0.0686384 0.248692 -0.0791004 -0.0581771 0.245613 -0.0821203 
-0.0895267 0.254126 -0.0774006 -0.0802382 0.254126 -0.0774006 -0.123056 0.259077 -0.0785972 
-0.107781 0.259082 -0.0787766 -0.0431142 0.261616 -0.0768493 -0.0539861 0.264912 -0.0796869 
-0.0708947 0.285789 -0.0822415 -0.0632155 0.282519 -0.0794353 -0.123063 0.309977 -0.0786139 
-0.107787 0.309981 -0.0787933 -0.0589878 0.314982 -0.076861 -0.0431142 0.314982 -0.076861 
-0.032628 0.204775 -0.0711699 -0.0366781 0.204821 -0.07123 -0.0895267 0.227914 -0.0681121 
-0.0802382 0.227914 -0.0681121 -0.0708266 0.245693 -0.069408 -0.0581458 0.245718 -0.0694394 
-0.0895267 0.254126 -0.0681121 -0.0802382 0.254126 -0.0681121 -0.0248386 0.26237 -0.0729724 
-0.00936412 0.262262 -0.0728838 -0.0708634 0.285894 -0.0695607 -0.0581825 0.285919 -0.0695921 
-0.0246804 0.314093 -0.0730895 -0.00920592 0.313985 -0.0730009 -0.0326886 0.204731 -0.0671199 
-0.0367387 0.204776 -0.06718 -0.122876 0.259088 -0.0633222 -0.107601 0.259093 -0.0635016 
-0.00495385 0.256371 -0.0612364 -0.122883 0.309988 -0.063339 -0.107608 0.309993 -0.0635184 
-0.0198355 0.305621 -0.0613348 -0.00495977 0.305625 -0.0612678 -0.0894236 0.249563 -0.0569888 
-0.075745 0.249563 -0.0569888 -0.0185174 0.255104 -0.0587531 -0.0249273 0.262451 -0.0574978 
-0.010765 0.263606 -0.0599596 -0.0611988 0.267263 -0.0577505 -0.0447265 0.267263 -0.0577505 
-0.0894236 0.293885 -0.0569983 -0.075745 0.293885 -0.0569983 -0.0247691 0.314172 -0.0576149 
-0.00929456 0.314065 -0.0575264 -0.0611988 0.3231 -0.0577505 -0.0447265 0.3231 -0.0577505 
-0.0198967 0.256388 -0.0464275 -0.00502073 0.256392 -0.0463606 -0.0199026 0.305642 -0.0464589 
-0.00502663 0.305646 -0.046392 -0.109592 0.234056 -0.0379427 -0.0991057 0.234056 -0.0379427 
-0.0894236 0.249575 -0.0433098 -0.075745 0.249575 -0.0433098 -0.109592 0.265205 -0.0379427 
-0.0991057 0.265205 -0.0379427 -0.0611988 0.267263 -0.0412783 -0.0447265 0.267263 -0.0412783 
-0.0894236 0.293887 -0.0433202 -0.075745 0.293887 -0.0433202 -0.0611988 0.3231 -0.0412783 
-0.0447265 0.3231 -0.0412783 -0.134123 0.248715 -0.0373336 -0.121043 0.248715 -0.0373336 
-0.134123 0.29056 -0.0373332 -0.121043 0.29056 -0.0373332 -0.0122044 0.217536 -0.0271811 
-0.0535772 0.227946 -0.0245051 -0.044089 0.227946 -0.0245051 -0.109592 0.234056 -0.0274568 
-0.0991057 0.234056 -0.0274568 -0.0117534 0.237922 -0.0266764 -0.134123 0.248712 -0.0242536 
-0.121043 0.248712 -0.0242536 -0.0535772 0.25498 -0.0245051 -0.044089 0.25498 -0.0245051 
-0.109592 0.265205 -0.0274568 -0.0991057 0.265205 -0.0274568 -0.0240329 0.259367 -0.0241097 
-0.134123 0.290562 -0.0242532 -0.121043 0.290562 -0.0242532 -0.0122168 0.216902 -0.0190908 
-0.0535772 0.227946 -0.015017 -0.044089 0.227946 -0.015017 -0.0547629 0.232935 -0.0160265 
-0.044277 0.233028 -0.0160107 -0.0117937 0.237245 -0.0185862 -0.0535772 0.25498 -0.015017 
-0.044089 0.25498 -0.015017 -0.0548486 0.264118 -0.0160108 -0.0443628 0.264143 -0.0160265 
-0.0101453 0.259158 -0.0192653 -0.0251542 0.310119 -0.0204069 -0.0101937 0.310058 -0.0192887 
-0.0340162 0.259346 -0.010727 -0.0162257 0.2606 -0.0109907 -0.03284 0.307857 -0.011155 
-0.0151527 0.312081 -0.0145958 -0.0260629 0.258009 -0.00424009 -0.0100862 0.259192 -0.00410128 
-0.0283756 0.305745 -0.000182803 -0.0104502 0.310074 -0.00401399 -0.0328438 0.259409 0.00412387 
-0.03284 0.307861 0.00412 -0.0176412 0.307833 0.00433483 -0.0547629 0.232969 0.0137155 
-0.044277 0.232994 0.0136998 -0.0548487 0.264084 0.0136998 -0.0443628 0.264177 0.0137155 
-0.0190565 0.259144 0.00823174 -0.0932492 0.237784 0.0185319 -0.0817657 0.237793 0.0184513 
-0.0932621 0.273048 0.0185325 -0.0817785 0.273056 0.0184518 -0.109029 0.23923 0.0270718 
[...]
POINT_DATA 1093
FIELD FieldData 8
id 1 1093 int
3781 3801 3730 3894 3745 2648 3927 3749 3789 
3994 3744 3970 3802 3884 2739 2901 3917 3952 
3937 3023 3359 3024 2755 3931 3785 3823 3296 
3981 3738 3852 3908 3773 3180 3844 3586 3685 
3987 3959 3932 3808 3960 3966 3903 3830 3877 
3943 3360 3716 3242 4786 4790 3731 3757 3135 
4791 4787 3961 3727 3896 3951 3243 3918 2962 
3809 3873 3244 3814 3758 3939 2824 3853 3714 
3995 3920 2749 3953 3885 3938 3787 2961 3879 
3182 3919 3297 3786 3815 3925 3746 3971 3975 
3831 2482 2484 3720 3962 2902 3686 3847 3688 
3982 3782 3825 2823 3836 3803 3950 3906 3988 
3587 3775 3940 3996 3955 3909 3728 3747 3911 
3854 3631 3788 3954 3406 3760 3461 3768 3864 
3765 3761 3871 3863 2550 3910 3721 3325 3136 
3968 3941 3776 2509 3997 3754 3977 3963 3632 
3729 3875 3956 3874 3689 3837 3690 4442 4446 
4444 4448 4443 4447 4445 4441 4018 4022 4020 
4024 4690 4691 4695 4694 4692 4693 4689 4696 
4226 4230 4228 4232 4019 4023 4021 4017 4602 
4606 4330 4334 4604 4608 4227 4231 4042 4046 
4332 4336 4229 4225 4044 4048 4603 4607 4331 
4335 4605 4601 4333 4329 4594 4598 4282 4286 
4596 4600 4084 4088 4047 4043 4284 4288 4086 
4090 4045 4041 4792 4788 4595 4599 4283 4287 
4597 4593 4058 4062 4285 4281 4060 4064 4785 
4789 4085 4089 4142 4087 4091 4140 4144 4194 
4198 4138 4059 4063 4026 4030 4196 4200 4061 
4057 4028 4032 4139 4143 4141 4137 4475 4479 
4195 4199 4477 4481 4027 4031 4197 4193 4029 
4025 4258 4262 4260 4264 4658 4578 4582 4476 
4480 4660 4259 4263 4580 4584 4478 4482 4092 
4261 4257 4659 4579 4583 4483 4487 4661 4581 
4577 4485 4474 4096 4094 4074 4076 4093 4078 
4095 4080 4075 4082 4073 4077 4079 4083 4484 
4488 4486 4473 4081 4362 4366 4364 4368 4346 
4350 4363 4367 4348 4352 4365 4361 4674 4678 
4676 4680 4162 4166 4164 4168 4010 4012 4634 
4638 4675 4679 4347 4351 4636 4640 4677 4673 
4314 4318 4163 4167 4349 4345 4316 4320 4165 
4161 4354 4268 4356 4011 4730 4734 4635 4639 
4736 4732 4637 4633 4498 4315 4319 4355 4146 
4150 4266 4270 4034 4038 4357 4317 4313 4272 
4148 4152 4036 4040 4002 4006 4013 4004 4008 
4735 4731 4729 4733 4499 4267 4271 4115 4119 
4500 4035 4269 4039 4265 4117 4121 4068 4072 
4770 4774 4772 4776 4210 4214 4154 4158 4147 
4151 4066 4070 4501 4212 4216 4156 4160 4149 
4145 4037 4033 4005 4001 4771 4775 4773 4769 
4530 4534 4234 4155 4238 4159 4116 4120 4123 
4127 4067 4532 4071 4536 4389 4236 4240 4157 
4153 4118 4122 4125 4114 4069 4065 4003 4007 
4387 4391 4211 4215 4128 4393 4213 4209 4450 
4454 4586 4590 4531 4535 4388 4392 4418 4422 
4235 4239 4588 4592 4178 4182 4452 4456 4124 
4533 4529 4394 4420 4424 4237 4233 4180 4184 
4126 4113 4451 4455 4587 4591 4419 4423 4290 
4294 4589 4585 4453 4449 4390 4421 4417 4292 
4296 4555 4559 4395 4399 4291 4295 4338 4342 
4179 4183 4557 4561 4397 4386 4340 4344 4293 
4289 4181 4177 4556 4560 4611 4615 4506 4510 
4613 4396 4339 4343 4508 4512 4558 4562 4341 
4337 4738 4742 4726 4722 4740 4744 4728 4724 
4612 4616 4507 4511 4617 4400 4614 4618 4509 
4505 4398 4385 4619 4739 4743 4623 4727 4723 
4621 4741 4737 4721 4725 4610 4050 4052 4620 
4624 4622 4563 4567 4609 4565 4554 4564 4568 
4566 4553 4051 4053 3899 3849 3161 3811 3440 
3905 3818 3876 3972 3838 3934 3762 3860 3784 
3900 3957 3726 3405 3964 3755 3945 3985 3025 
3741 3717 3978 3858 3666 2927 2591 2989 3922 
3856 2481 3778 3796 3867 3711 2867 3888 3441 
3806 3737 3869 3819 3805 3723 2483 3712 3665 
3766 3162 3208 3850 3881 3797 3812 3770 3840 
3691 3891 2748 3324 3851 3889 3614 2751 3262 
3890 3991 3771 2750 3793 3914 3777 3946 3791 
3774 2690 3732 3442 3870 3779 3764 3385 3915 
3263 3742 3999 3820 3718 3668 3913 3799 3901 
3923 2790 3828 3692 2963 3993 3613 3084 3916 
3979 3974 3998 3667 3924 2928 3947 3750 3810 
3739 3790 3835 3719 3715 3892 3772 3751 3846 
3857 3298 3861 3443 3833 3935 3926 3733 3958 
3983 3798 3800 3843 3326 2753 3872 3992 3936 
2868 3725 3967 3792 3902 3883 3444 3693 3980 
3743 3848 3930 3969 3763 4714 4718 4716 4720 
4715 4719 4717 4713 4626 4630 4515 4519 4628 
4632 4517 4521 4627 4631 4629 4625 4516 4520 
4402 4406 4518 4522 4404 4408 4523 4527 4403 
4407 4525 4514 4405 4401 4698 4702 4700 4704 
4699 4703 4701 4697 4524 4528 4526 4513 4426 
4430 4428 4432 4759 4754 4755 4758 4753 4760 
4756 4757 4427 4431 4429 4425 4490 4494 4370 
4374 4298 4302 4492 4496 4372 4376 4300 4304 
4762 4766 4764 4768 4546 4550 4491 4458 4462 
4495 4371 4375 4299 4303 4202 4206 4548 4552 
4493 4460 4464 4489 4373 4369 4301 4297 4204 
4208 4763 4767 4765 4761 4682 4686 4684 4688 
4683 4687 4666 4670 4547 4551 4668 4672 4685 
4681 4459 4463 4203 4207 4549 4545 4461 4457 
4205 4201 4662 4667 4671 4664 4669 4665 4663 
4642 4646 4657 4644 4648 4645 4641 4643 4647 
4650 4654 4652 4656 4651 4655 4653 4649 4306 
4310 4308 4312 4014 4016 4746 4750 4752 4748 
4751 4747 4745 4749 4378 4382 4358 4540 4307 
4311 4380 4384 4360 4309 4305 4015 4538 4542 
4706 4710 4502 4708 4712 4359 4322 4544 4326 
4186 4190 4353 4324 4328 4188 4192 4009 4539 
4543 4707 4711 4379 4383 4503 4709 4705 4541 
4537 4243 4247 4504 4381 4377 4103 4185 4245 
4249 4101 4105 4323 4327 4187 4191 4497 4099 
4325 4321 4189 4244 4248 4100 4104 4246 4250 
4102 4106 4410 4414 4412 4416 4411 4415 4413 
4409 4434 4438 4436 4440 4435 4439 4255 4130 
4134 4433 4437 4253 4242 4132 4136 4778 4784 
4782 4780 4218 4222 4251 4220 4224 4781 4777 
4783 4779 4252 4256 4170 4174 4131 4135 4254 
4241 4172 4176 4133 4129 4570 4574 4466 4470 
4219 4223 4171 4175 4054 4572 4576 4468 4472 
4276 4221 4217 4173 4169 4056 4274 4278 4467 
4471 4107 4111 4469 4465 4280 4109 4098 4571 
4575 4275 4279 4573 4569 4108 4112 4277 4055 
4273 4110 4097 4049 
type 1 1093 int
2 2 2 2 2 2 2 2 2 
2 2 2 2 2 2 2 2 2 
2 2 2 2 2 2 2 2 2 
2 2 2 2 2 2 2 2 2 
2 2 2 2 2 2 2 2 2 
2 2 2 2 2 2 2 2 2 
2 2 2 2 2 2 2 2 2 
2 2 2 2 2 2 2 2 2 
2 2 2 2 2 2 2 2 2 
2 2 2 2 2 2 2 2 2 
2 2 2 2 2 2 2 2 2 
2 2 2 2 2 2 2 2 2 
2 2 2 2 2 2 2 2 2 
2 2 2 2 2 2 2 2 2 
2 2 2 2 2 2 2 2 2 
2 2 2 2 2 2 2 2 2 
2 2 2 2 2 2 2 2 2 
2 2 2 2 2 2 2 2 2 
2 2 2 2 2 2 2 2 2 
2 2 2 2 2 2 2 2 2 
2 2 2 2 2 2 2 2 2 
2 2 2 2 2 2 2 2 2 
2 2 2 2 2 2 2 2 2 
2 2 2 2 2 2 2 2 2 
2 2 2 2 2 2 2 2 2 
2 2 2 2 2 2 2 2 2 
2 2 2 2 2 2 2 2 2 
2 2 2 2 2 2 2 2 2 
2 2 2 2 2 2 2 2 2 
2 2 2 2 2 2 2 2 2 
2 2 2 2 2 2 2 2 2 
2 2 2 2 2 2 2 2 2 
2 2 2 2 2 2 2 2 2 
2 2 2 2 2 2 2 2 2 
2 2 2 2 2 2 2 2 2 
2 2 2 2 2 2 2 2 2 
2 2 2 2 2 2 2 2 2 
2 2 2 2 2 2 2 2 2 
2 2 2 2 2 2 2 2 2 
2 2 2 2 2 2 2 2 2 
2 2 2 2 2 2 2 2 2 
2 2 2 2 2 2 2 2 2 
2 2 2 2 2 2 2 2 2 
2 2 2 2 2 2 2 2 2 
2 2 2 2 2 2 2 2 2 
2 2 2 2 2 2 2 2 2 
2 2 2 2 2 2 2 2 2 
2 2 2 2 2 2 2 2 2 
2 2 2 2 2 2 2 2 2 
2 2 2 2 2 2 2 2 2 
2 2 2 2 2 2 2 2 2 
2 2 2 2 2 2 2 2 2 
2 2 2 2 2 2 2 2 2 
2 2 2 2 2 2 2 2 2 
2 2 2 2 2 2 2 2 2 
2 2 2 2 2 2 2 2 2 
2 2 2 2 2 2 2 2 2 
2 2 2 2 2 2 2 2 2 
2 2 2 2 2 2 2 2 2 
2 2 2 2 2 2 2 2 2 
2 2 2 2 2 2 2 2 2 
2 2 2 2 2 2 2 2 2 
2 2 2 2 2 2 2 2 2 
2 2 2 2 2 2 2 2 2 
2 2 2 2 2 2 2 2 2 
2 2 2 2 2 2 2 2 2 
2 2 2 2 2 2 2 2 2 
2 2 2 2 2 2 2 2 2 
2 2 2 2 2 2 2 2 2 
2 2 2 2 2 2 2 2 2 
2 2 2 2 2 2 2 2 2 
2 2 2 2 2 2 2 2 2 
2 2 2 2 2 2 2 2 2 
2 2 2 2 2 2 2 2 2 
2 2 2 2 2 2 2 2 2 
2 2 2 2 2 2 2 2 2 
2 2 2 2 2 2 2 2 2 
2 2 2 2 2 2 2 2 2 
2 2 2 2 2 2 2 2 2 
2 2 2 2 2 2 2 2 2 
2 2 2 2 2 2 2 2 2 
2 2 2 2 2 2 2 2 2 
2 2 2 2 2 2 2 2 2 
2 2 2 2 2 2 2 2 2 
2 2 2 2 2 2 2 2 2 
2 2 2 2 2 2 2 2 2 
2 2 2 2 2 2 2 2 2 
2 2 2 2 2 2 2 2 2 
2 2 2 2 2 2 2 2 2 
2 2 2 2 2 2 2 2 2 
2 2 2 2 2 2 2 2 2 
2 2 2 2 2 2 2 2 2 
2 2 2 2 2 2 2 2 2 
2 2 2 2 2 2 2 2 2 
2 2 2 2 2 2 2 2 2 
2 2 2 2 2 2 2 2 2 
2 2 2 2 2 2 2 2 2 
2 2 2 2 2 2 2 2 2 
2 2 2 2 2 2 2 2 2 
2 2 2 2 2 2 2 2 2 
2 2 2 2 2 2 2 2 2 
2 2 2 2 2 2 2 2 2 
2 2 2 2 2 2 2 2 2 
2 2 2 2 2 2 2 2 2 
2 2 2 2 2 2 2 2 2 
2 2 2 2 2 2 2 2 2 
2 2 2 2 2 2 2 2 2 
2 2 2 2 2 2 2 2 2 
2 2 2 2 2 2 2 2 2 
2 2 2 2 2 2 2 2 2 
2 2 2 2 2 2 2 2 2 
2 2 2 2 2 2 2 2 2 
2 2 2 2 2 2 2 2 2 
2 2 2 2 2 2 2 2 2 
2 2 2 2 2 2 2 2 2 
2 2 2 2 2 2 2 2 2 
2 2 2 2 2 2 2 2 2 
2 2 2 2 2 2 2 2 2 
2 2 2 2 2 2 2 2 2 
2 2 2 2 2 2 2 2 2 
2 2 2 2 2 2 2 2 2 
2 2 2 2 
i 3 1093 int
0 0 0 0 0 0 0 0 0 
0 0 0 0 0 0 0 0 0 
0 0 0 0 0 0 0 0 0 
0 0 0 0 0 0 0 0 0 
0 0 0 0 0 0 0 0 0 
0 0 0 0 0 0 0 0 0 
0 0 0 0 0 0 0 0 0 
0 0 0 0 0 0 0 0 0 
0 0 0 0 0 0 0 0 0 
0 0 0 0 0 0 0 0 0 
0 0 0 0 0 0 0 0 0 
0 0 0 0 0 0 0 0 0 
0 0 0 0 0 0 0 0 0 
0 0 0 0 0 0 0 0 0 
0 0 0 0 0 0 0 0 0 
0 0 0 0 0 0 0 0 0 
0 0 0 0 0 0 0 0 0 
0 0 0 0 0 0 0 0 0 
0 0 0 0 0 0 0 0 0 
0 0 0 0 0 0 0 0 0 
0 0 0 0 0 0 0 0 0 
0 0 0 0 0 0 0 0 0 
0 0 0 0 0 0 0 0 0 
0 0 0 0 0 0 0 0 0 
0 0 0 0 0 0 0 0 0 
0 0 0 0 0 0 0 0 0 
0 0 0 0 0 0 0 0 0 
0 0 0 0 0 0 0 0 0 
0 0 0 0 0 0 0 0 0 
0 0 0 0 0 0 0 0 0 
0 0 0 0 0 0 0 0 0 
0 0 0 0 0 0 0 0 0 
0 0 0 0 0 0 0 0 0 
0 0 0 0 0 0 0 0 0 
0 0 0 0 0 0 0 0 0 
0 0 0 0 0 0 0 0 0 
0 0 0 0 0 0 0 0 0 
0 0 0 0 0 0 0 0 0 
0 0 0 0 0 0 0 0 0 
0 0 0 0 0 0 0 0 0 
0 0 0 0 0 0 0 0 0 
0 0 0 0 0 0 0 0 0 
0 0 0 0 0 0 0 0 0 
0 0 0 0 0 0 0 0 0 
0 0 0 0 0 0 0 0 0 
0 0 0 0 0 0 0 0 0 
0 0 0 0 0 0 0 0 0 
0 0 0 0 0 0 0 0 0 
0 0 0 0 0 0 0 0 0 
0 0 0 0 0 0 0 0 0 
0 0 0 0 0 0 0 0 0 
0 0 0 0 0 0 0 0 0 
0 0 0 0 0 0 0 0 0 
0 0 0 0 0 0 0 0 0 
0 0 0 0 0 0 0 0 0 
0 0 0 0 0 0 0 0 0 
0 0 0 0 0 0 0 0 0 
0 0 0 0 0 0 0 0 0 
0 0 0 0 0 0 0 0 0 
0 0 0 0 0 0 0 0 0 
0 0 0 0 0 0 0 0 0 
0 0 0 0 0 0 0 0 0 
0 0 0 0 0 0 0 0 0 
0 0 0 0 0 0 0 0 0 
0 0 0 0 0 0 0 0 0 
0 0 0 0 0 0 0 0 0 
0 0 0 0 0 0 0 0 0 
0 0 0 0 0 0 0 0 0 
0 0 0 0 0 0 0 0 0 
0 0 0 0 0 0 0 0 0 
0 0 0 0 0 0 0 0 0 
0 0 0 0 0 0 0 0 0 
0 0 0 0 0 0 0 0 0 
0 0 0 0 0 0 0 0 0 
0 0 0 0 0 0 0 0 0 
0 0 0 0 0 0 0 0 0 
0 0 0 0 0 0 0 0 0 
0 0 0 0 0 0 0 0 0 
0 0 0 0 0 0 0 0 0 
0 0 0 0 0 0 0 0 0 
0 0 0 0 0 0 0 0 0 
0 0 0 0 0 0 0 0 0 
0 0 0 0 0 0 0 0 0 
0 0 0 0 0 0 0 0 0 
0 0 0 0 0 0 0 0 0 
0 0 0 0 0 0 0 0 0 
0 0 0 0 0 0 0 0 0 
0 0 0 0 0 0 0 0 0 
0 0 0 0 0 0 0 0 0 
0 0 0 0 0 0 0 0 0 
0 0 0 0 0 0 0 0 0 
0 0 0 0 0 0 0 0 0 
0 0 0 0 0 0 0 0 0 
0 0 0 0 0 0 0 0 0 
0 0 0 0 0 0 0 0 0 
0 0 0 0 0 0 0 0 0 
0 0 0 0 0 0 0 0 0 
0 0 0 0 0 0 0 0 0 
0 0 0 0 0 0 0 0 0 
0 0 0 0 0 0 0 0 0 
0 0 0 0 0 0 0 0 0 
0 0 0 0 0 0 0 0 0 
0 0 0 0 0 0 0 0 0 
0 0 0 0 0 0 0 0 0 
0 0 0 0 0 0 0 0 0 
0 0 0 0 0 0 0 0 0 
0 0 0 0 0 0 0 0 0 
0 0 0 0 0 0 0 0 0 
0 0 0 0 0 0 0 0 0 
0 0 0 0 0 0 0 0 0 
0 0 0 0 0 0 0 0 0 
0 0 0 0 0 0 0 0 0 
0 0 0 0 0 0 0 0 0 
0 0 0 0 0 0 0 0 0 
0 0 0 0 0 0 0 0 0 
0 0 0 0 0 0 0 0 0 
0 0 0 0 0 0 0 0 0 
0 0 0 0 0 0 0 0 0 
0 0 0 0 0 0 0 0 0 
0 0 0 0 0 0 0 0 0 
0 0 0 0 0 0 0 0 0 
0 0 0 0 0 0 0 0 0 
0 0 0 0 0 0 0 0 0 
0 0 0 0 0 0 0 0 0 
0 0 0 0 0 0 0 0 0 
0 0 0 0 0 0 0 0 0 
0 0 0 0 0 0 0 0 0 
0 0 0 0 0 0 0 0 0 
0 0 0 0 0 0 0 0 0 
0 0 0 0 0 0 0 0 0 
0 0 0 0 0 0 0 0 0 
0 0 0 0 0 0 0 0 0 
0 0 0 0 0 0 0 0 0 
0 0 0 0 0 0 0 0 0 
0 0 0 0 0 0 0 0 0 
0 0 0 0 0 0 0 0 0 
0 0 0 0 0 0 0 0 0 
0 0 0 0 0 0 0 0 0 
0 0 0 0 0 0 0 0 0 
0 0 0 0 0 0 0 0 0 
0 0 0 0 0 0 0 0 0 
0 0 0 0 0 0 0 0 0 
0 0 0 0 0 0 0 0 0 
0 0 0 0 0 0 0 0 0 
0 0 0 0 0 0 0 0 0 
0 0 0 0 0 0 0 0 0 
0 0 0 0 0 0 0 0 0 
0 0 0 0 0 0 0 0 0 
0 0 0 0 0 0 0 0 0 
0 0 0 0 0 0 0 0 0 
0 0 0 0 0 0 0 0 0 
0 0 0 0 0 0 0 0 0 
0 0 0 0 0 0 0 0 0 
0 0 0 0 0 0 0 0 0 
0 0 0 0 0 0 0 0 0 
0 0 0 0 0 0 0 0 0 
0 0 0 0 0 0 0 0 0 
0 0 0 0 0 0 0 0 0 
0 0 0 0 0 0 0 0 0 
0 0 0 0 0 0 0 0 0 
0 0 0 0 0 0 0 0 0 
0 0 0 0 0 0 0 0 0 
0 0 0 0 0 0 0 0 0 
0 0 0 0 0 0 0 0 0 
0 0 0 0 0 0 0 0 0 
0 0 0 0 0 0 0 0 0 
0 0 0 0 0 0 0 0 0 
0 0 0 0 0 0 0 0 0 
0 0 0 0 0 0 0 0 0 
0 0 0 0 0 0 0 0 0 
0 0 0 0 0 0 0 0 0 
0 0 0 0 0 0 0 0 0 
0 0 0 0 0 0 0 0 0 
0 0 0 0 0 0 0 0 0 
0 0 0 0 0 0 0 0 0 
0 0 0 0 0 0 0 0 0 
0 0 0 0 0 0 0 0 0 
0 0 0 0 0 0 0 0 0 
0 0 0 0 0 0 0 0 0 
0 0 0 0 0 0 0 0 0 
0 0 0 0 0 0 0 0 0 
0 0 0 0 0 0 0 0 0 
0 0 0 0 0 0 0 0 0 
0 0 0 0 0 0 0 0 0 
0 0 0 0 0 0 0 0 0 
0 0 0 0 0 0 0 0 0 
0 0 0 0 0 0 0 0 0 
0 0 0 0 0 0 0 0 0 
0 0 0 0 0 0 0 0 0 
0 0 0 0 0 0 0 0 0 
0 0 0 0 0 0 0 0 0 
0 0 0 0 0 0 0 0 0 
0 0 0 0 0 0 0 0 0 
0 0 0 0 0 0 0 0 0 
0 0 0 0 0 0 0 0 0 
0 0 0 0 0 0 0 0 0 
0 0 0 0 0 0 0 0 0 
0 0 0 0 0 0 0 0 0 
0 0 0 0 0 0 0 0 0 
0 0 0 0 0 0 0 0 0 
0 0 0 0 0 0 0 0 0 
0 0 0 0 0 0 0 0 0 
0 0 0 0 0 0 0 0 0 
0 0 0 0 0 0 0 0 0 
0 0 0 0 0 0 0 0 0 
0 0 0 0 0 0 0 0 0 
0 0 0 0 0 0 0 0 0 
0 0 0 0 0 0 0 0 0 
0 0 0 0 0 0 0 0 0 
0 0 0 0 0 0 0 0 0 
0 0 0 0 0 0 0 0 0 
0 0 0 0 0 0 0 0 0 
0 0 0 0 0 0 0 0 0 
0 0 0 0 0 0 0 0 0 
0 0 0 0 0 0 0 0 0 
0 0 0 0 0 0 0 0 0 
0 0 0 0 0 0 0 0 0 
0 0 0 0 0 0 0 0 0 
0 0 0 0 0 0 0 0 0 
0 0 0 0 0 0 0 0 0 
0 0 0 0 0 0 0 0 0 
0 0 0 0 0 0 0 0 0 
0 0 0 0 0 0 0 0 0 
0 0 0 0 0 0 0 0 0 
0 0 0 0 0 0 0 0 0 
0 0 0 0 0 0 0 0 0 
0 0 0 0 0 0 0 0 0 
0 0 0 0 0 0 0 0 0 
0 0 0 0 0 0 0 0 0 
0 0 0 0 0 0 0 0 0 
0 0 0 0 0 0 0 0 0 
0 0 0 0 0 0 0 0 0 
0 0 0 0 0 0 0 0 0 
0 0 0 0 0 0 0 0 0 
0 0 0 0 0 0 0 0 0 
0 0 0 0 0 0 0 0 0 
0 0 0 0 0 0 0 0 0 
0 0 0 0 0 0 0 0 0 
0 0 0 0 0 0 0 0 0 
0 0 0 0 0 0 0 0 0 
0 0 0 0 0 0 0 0 0 
0 0 0 0 0 0 0 0 0 
0 0 0 0 0 0 0 0 0 
0 0 0 0 0 0 0 0 0 
0 0 0 0 0 0 0 0 0 
0 0 0 0 0 0 0 0 0 
0 0 0 0 0 0 0 0 0 
0 0 0 0 0 0 0 0 0 
0 0 0 0 0 0 0 0 0 
0 0 0 0 0 0 0 0 0 
0 0 0 0 0 0 0 0 0 
0 0 0 0 0 0 0 0 0 
0 0 0 0 0 0 0 0 0 
0 0 0 0 0 0 0 0 0 
0 0 0 0 0 0 0 0 0 
0 0 0 0 0 0 0 0 0 
0 0 0 0 0 0 0 0 0 
0 0 0 0 0 0 0 0 0 
0 0 0 0 0 0 0 0 0 
0 0 0 0 0 0 0 0 0 
0 0 0 0 0 0 0 0 0 
0 0 0 0 0 0 0 0 0 
0 0 0 0 0 0 0 0 0 
0 0 0 0 0 0 0 0 0 
0 0 0 0 0 0 0 0 0 
0 0 0 0 0 0 0 0 0 
0 0 0 0 0 0 0 0 0 
0 0 0 0 0 0 0 0 0 
0 0 0 0 0 0 0 0 0 
0 0 0 0 0 0 0 0 0 
0 0 0 0 0 0 0 0 0 
0 0 0 0 0 0 0 0 0 
0 0 0 0 0 0 0 0 0 
0 0 0 0 0 0 0 0 0 
0 0 0 0 0 0 0 0 0 
0 0 0 0 0 0 0 0 0 
0 0 0 0 0 0 0 0 0 
0 0 0 0 0 0 0 0 0 
0 0 0 0 0 0 0 0 0 
0 0 0 0 0 0 0 0 0 
0 0 0 0 0 0 0 0 0 
0 0 0 0 0 0 0 0 0 
0 0 0 0 0 0 0 0 0 
0 0 0 0 0 0 0 0 0 
0 0 0 0 0 0 0 0 0 
0 0 0 0 0 0 0 0 0 
0 0 0 0 0 0 0 0 0 
0 0 0 0 0 0 0 0 0 
0 0 0 0 0 0 0 0 0 
0 0 0 0 0 0 0 0 0 
0 0 0 0 0 0 0 0 0 
0 0 0 0 0 0 0 0 0 
0 0 0 0 0 0 0 0 0 
0 0 0 0 0 0 0 0 0 
0 0 0 0 0 0 0 0 0 
0 0 0 0 0 0 0 0 0 
0 0 0 0 0 0 0 0 0 
0 0 0 0 0 0 0 0 0 
0 0 0 0 0 0 0 0 0 
0 0 0 0 0 0 0 0 0 
0 0 0 0 0 0 0 0 0 
0 0 0 0 0 0 0 0 0 
0 0 0 0 0 0 0 0 0 
0 0 0 0 0 0 0 0 0 
0 0 0 0 0 0 0 0 0 
0 0 0 0 0 0 0 0 0 
0 0 0 0 0 0 0 0 0 
0 0 0 0 0 0 0 0 0 
0 0 0 0 0 0 0 0 0 
0 0 0 0 0 0 0 0 0 
0 0 0 0 0 0 0 0 0 
0 0 0 0 0 0 0 0 0 
0 0 0 0 0 0 0 0 0 
0 0 0 0 0 0 0 0 0 
0 0 0 0 0 0 0 0 0 
0 0 0 0 0 0 0 0 0 
0 0 0 0 0 0 0 0 0 
0 0 0 0 0 0 0 0 0 
0 0 0 0 0 0 0 0 0 
0 0 0 0 0 0 0 0 0 
0 0 0 0 0 0 0 0 0 
0 0 0 0 0 0 0 0 0 
0 0 0 0 0 0 0 0 0 
0 0 0 0 0 0 0 0 0 
0 0 0 0 0 0 0 0 0 
0 0 0 0 0 0 0 0 0 
0 0 0 0 0 0 0 0 0 
0 0 0 0 0 0 0 0 0 
0 0 0 0 0 0 0 0 0 
0 0 0 0 0 0 0 0 0 
0 0 0 0 0 0 0 0 0 
0 0 0 0 0 0 0 0 0 
0 0 0 0 0 0 0 0 0 
0 0 0 0 0 0 0 0 0 
0 0 0 0 0 0 0 0 0 
0 0 0 0 0 0 0 0 0 
0 0 0 0 0 0 0 0 0 
0 0 0 0 0 0 0 0 0 
0 0 0 0 0 0 0 0 0 
0 0 0 0 0 0 0 0 0 
0 0 0 0 0 0 0 0 0 
0 0 0 0 0 0 0 0 0 
0 0 0 0 0 0 0 0 0 
0 0 0 0 0 0 0 0 0 
0 0 0 0 0 0 0 0 0 
0 0 0 0 0 0 0 0 0 
0 0 0 0 0 0 0 0 0 
0 0 0 0 0 0 0 0 0 
0 0 0 0 0 0 0 0 0 
0 0 0 0 0 0 0 0 0 
0 0 0 0 0 0 0 0 0 
0 0 0 0 0 0 0 0 0 
0 0 0 0 0 0 0 0 0 
0 0 0 0 0 0 0 0 0 
0 0 0 0 0 0 0 0 0 
0 0 0 0 0 0 0 0 0 
0 0 0 0 0 0 0 0 0 
0 0 0 0 0 0 0 0 0 
0 0 0 0 0 0 0 0 0 
0 0 0 0 0 0 0 0 0 
0 0 0 0 0 0 0 0 0 
0 0 0 0 0 0 0 0 0 
0 0 0 0 0 0 0 0 0 
0 0 0 0 0 0 0 0 0 
0 0 0 
v 3 1093 double
0.0080156891962 -0.0015029605931 0.004447886628 0.010048934566 -0.00070430313784 0.0034683114765 -0.029080006669 0.04353332093 0.035337047209 
0.0046274359853 0.008066801115 -0.0032981339191 -0.0056303209371 0.0085283445581 0.016039859049 -0.027173646627 0.011902077028 0.021408443641 
-0.01040054753 0.0058004044742 0.04555054737 -0.19048707261 0.037453699347 -0.044591951551 -0.084222972431 0.081829535961 -0.0015657430505 
-0.015970077835 0.15166809512 0.0078683031147 0.0084999301845 0.1323890659 0.0081926522313 -0.13317801248 0.16221021249 0.0070055395523 
-0.040956546694 0.26237529859 -0.077021290032 0.0041098429884 0.30328549985 0.0085481915591 0.0086390268809 0.038845535794 -0.0015567670795 
0.019798951085 0.040401127349 0.0076420378047 -0.078830096885 0.05744859893 0.00019912973901 -0.073359751146 0.048740936439 0.033533506534 
0.00042695319134 0.13846042764 0.029105660503 -0.13444462905 -0.096310921272 -0.048121224652 -0.097613623005 0.14261836488 -0.069878233524 
0.012445841211 0.010247161759 0.022377678425 -0.015825932323 -0.0093599622889 0.054880867859 -0.055110835015 0.016838623604 0.044337729087 
-0.021953360345 0.025884201396 0.04599242959 0.029483446629 0.02126726561 0.019328405917 0.012718550083 0.067616469755 0.01425317236 
0.096087284017 0.12261288527 -0.004294039915 -0.22088889813 -0.095344829998 -0.22122638595 -0.024108631974 0.052866387327 -0.0092589620461 
-0.067244853967 0.04522047833 -0.011281584556 -0.046543241901 0.073906791384 0.057776194531 -0.005644904192 0.11634111591 0.004857108426 
-0.023837693753 0.013424326694 0.030482934101 -0.12700203971 0.048571700113 0.064957662293 0.017418324533 0.057616216922 -0.030352324845 
-0.031250205073 0.21919385107 0.082559184695 -0.00066328633309 0.27334262606 0.093316999735 -0.0032792434209 0.15987574977 -0.11366743156 
-0.013011560337 0.21057775716 -0.067361238852 0.049970442685 -0.065324642116 0.045880628903 -0.1632132347 0.016458060305 -0.098071338305 
0.035121297983 0.12847363527 0.096812815135 -0.02568388976 0.17898130461 0.043235618101 -0.084078667498 0.04976864582 -0.029746205785 
0.010421709988 0.032597662155 0.089304931032 -0.1093329276 0.013073293453 -0.054392005946 0.084560273476 0.0049494460269 0.023097140815 
8.7304082862e-05 0.05658216547 0.0490846904 -0.10775151857 0.16046173162 -0.22950282438 -0.052029098862 0.15416928719 -0.22120044775 
-0.10514529648 0.01736526256 0.032910920883 0.17906924697 0.04465336239 0.12954131523 0.011388376557 0.041364487349 -0.11565082641 
-0.06040822383 0.14802675083 -0.1654779904 -0.11613050894 0.1543202644 -0.17378049419 0.095677381331 0.0044200649861 -0.086041273012 
-0.023683525094 0.038479039595 0.077669425022 0.042602169189 0.089323789222 -0.065956124659 0.086954209449 0.2526704874 -0.16366621469 
0.0073616794846 0.22860097262 0.0056379145434 0.015727314557 0.021455075493 -0.0024677751594 -0.0039167831326 0.051254836739 -0.001557137884 
0.088817694295 0.1124998154 -0.053149249242 -0.041178332009 0.14957725344 0.14796284926 -0.011140416409 0.097767829241 -0.12921837017 
0.12805066387 0.097112908791 0.070525714734 0.21273066105 0.083784470045 0.0040210919325 -0.016476201133 0.099454444818 -0.084306564822 
0.092836600924 0.11632370629 -0.033720182364 0.032153006952 0.017443458787 0.013840565836 -0.12138748745 0.023556564993 -0.062933400745 
0.11675560386 0.0055103898253 0.016518092401 0.028538407798 0.025056636625 -0.064268107381 0.065426130544 0.13385490915 0.035482408426 
-0.15104217532 0.21350433729 -0.08847513098 -0.037631192519 -0.036205899104 -0.0086861403241 0.031590655792 0.043572963739 -0.02529784089 
0.066069911894 0.030486271706 0.011613924384 0.0720265258 0.092481050782 0.10567728676 -0.033229108723 0.13146619811 -0.072439225811 
-0.044097505797 -0.017331996616 -0.013690871854 0.13889610943 -0.022972110717 0.059703086428 0.0027558020571 0.066480200587 0.020948937278 
0.068650783752 0.018026213225 0.060475464125 0.0094198569489 0.15103026516 -0.022541178981 -0.0027343479842 0.020591615742 0.016982238916 
-0.02456028625 0.011359228832 -0.0113720337 -0.075355759169 0.021676425543 0.0073510566327 0.027032685635 0.021794619309 -0.024559164227 
0.014928890544 0.04441030584 -0.041816267398 -0.019593090008 0.057115403233 0.099738465183 -0.14265671729 0.14287988695 -0.12975060637 
-0.047772226234 0.0132061549 0.03151757883 0.010295846142 -0.015442188077 -0.036658417049 -0.010215913331 0.035447076697 0.029717211007 
-0.082935369571 0.12454513688 0.22031739751 0.041123408171 0.039412929023 -0.033088219191 -0.0096628145522 0.033629140474 0.017212347142 
0.0050733256563 0.016862138436 0.042681092749 0.049403257311 0.043097090476 -0.013412633032 -0.0019492195281 0.06894765178 0.027024499287 
0.048239276178 0.099225294711 0.24497616456 0.058714015235 0.0017270508604 -0.0052240249124 -0.0039913111495 0.045910097796 0.029473773607 
0.017297158063 0.051523199259 0.034196204277 -0.19451755495 0.039668183639 -0.064885900376 -0.029513261594 0.16173266479 0.02841832475 