# vtk DataFile Version 5.1
Generated by LIGGGHTS
ASCII
DATASET POLYDATA
POINTS 1184 float
-0.136362 0.0559356 -0.143611 -0.139463 0.0694604 -0.143198 -0.098064 0.0864337 -0.144714 
-0.143295 0.0610658 -0.136097 -0.119284 0.0590047 -0.136373 -0.0168837 0.0775499 -0.140046 
-0.0106291 0.109295 -0.138002 -0.103422 0.128498 -0.1414 -0.0716909 0.133645 -0.141171 
-0.144037 0.141675 -0.141744 -0.0797406 0.0607866 -0.134154 -0.00150695 0.0643592 -0.134402 
-0.132055 0.0740768 -0.133383 -0.0401343 0.0768106 -0.127729 -0.0917743 0.0939795 -0.132292 
-0.0230861 0.131047 -0.128486 -0.132565 0.141362 -0.129111 -0.141562 0.0638813 -0.126527 
-0.0187836 0.0986215 -0.126995 -0.139379 0.0590453 -0.112289 -0.129834 0.0550045 -0.116408 
-0.117943 0.0555323 -0.118766 -0.142767 0.0723279 -0.115845 -0.142436 0.0918515 -0.114252 
-0.0340254 0.0919686 -0.11649 -0.0693461 0.115789 -0.118564 -0.0945694 0.061407 -0.110875 
-0.0586578 0.0832155 -0.105294 -0.0372893 0.0811863 -0.111733 -0.129134 0.0931553 -0.110964 
-0.0828061 0.130554 -0.110148 -0.026708 0.061342 -0.0997234 -0.139612 0.0703024 -0.096922 
-0.0237915 0.106059 -0.100742 -0.074998 0.125913 -0.0999886 -0.058108 0.138257 -0.101419 
-0.0527936 0.0686347 -0.0960205 -0.11708 0.172489 -0.0925138 -0.0708063 0.154326 -0.0852575 
-0.0438829 0.0566517 -0.0803384 -0.129843 0.061724 -0.0771719 -0.044725 0.0805512 -0.0790433 
-0.0389523 0.12834 -0.075451 -0.00409513 0.055245 -0.0683926 -0.115531 0.0753927 -0.072565 
-0.00466407 0.0792936 -0.0735404 -0.111338 0.087982 -0.0707502 -0.0426594 0.0998682 -0.0684949 
-0.020745 0.0567048 -0.0626324 -0.135839 0.112382 -0.0622482 -0.0262141 0.134714 -0.0630865 
-0.122799 0.193618 -0.0669476 -0.110122 0.193968 -0.0612487 -0.0622103 0.0611356 -0.0591706 
-0.00865159 0.125456 -0.0564824 -0.0707796 0.060317 -0.0479177 -0.120806 0.0743818 -0.0473322 
-0.0206875 0.0785427 -0.0503002 -0.00899391 0.0793262 -0.0458873 -0.0955348 0.115197 -0.0518572 
-0.0025527 0.101367 -0.043997 -0.00905904 0.113929 -0.0403102 -0.0147165 0.0680277 -0.0311286 
-0.0406983 0.0895642 -0.0348422 -0.135789 0.109847 -0.0350935 -0.0514449 0.143275 -0.0338628 
-0.106941 0.059663 -0.0224647 -0.00179355 0.0857686 -0.0242828 -0.00484995 0.114085 -0.0264819 
-0.025416 0.129096 -0.0277272 -0.0714139 0.192917 -0.0304591 -0.12084 0.0555009 -0.0155719 
-0.0641474 0.0777233 -0.0202492 -0.016759 0.0851438 -0.0209201 -0.132629 0.14562 -0.0166279 
-0.130273 0.0593178 -0.0132576 -0.0393061 0.0637958 -0.00867985 -0.045903 0.0715035 -0.00696029 
-0.131924 0.0777799 -0.00941914 -0.0817353 0.0985093 -0.00951218 -0.0121844 0.140364 -0.0115808 
-0.0875183 0.0609224 -0.00442147 -0.0154551 0.0570914 -0.00279596 -0.00378376 0.0574435 -0.00631764 
-0.125001 0.0650238 -0.00466503 -0.107049 0.0810199 -0.0056718 -0.000112239 0.138752 -0.126303 
-0.138064 0.0609973 0.00104057 -0.0100142 0.0908169 0.00627949 -0.0307414 0.0552598 0.0115019 
-0.121758 0.0743781 0.012862 -0.13279 0.0674144 0.0203449 -0.112049 0.0631035 0.0166056 
-0.0212157 0.0648335 0.0170931 -0.144865 0.07056 0.0171471 -0.0934578 0.0840518 0.0182726 
-0.0165133 0.0792793 0.0150415 -0.131123 0.0881907 0.0216898 -0.113387 0.0551565 0.0235412 
-0.106847 0.0890863 0.0264325 -0.0850713 0.134282 0.0315144 -0.101231 0.148328 0.0262711 
-0.120218 0.0820283 0.0311366 -0.0255057 0.0790298 0.0374925 -0.0910854 0.0840002 0.0417129 
-0.0145212 0.0800909 0.0415633 -0.0414906 0.0947577 0.0373431 -0.0734522 0.128163 0.0437397 
-0.141706 0.141427 0.0456106 -0.112028 0.139704 0.0407766 -0.139069 0.187126 0.0433273 
-0.035001 0.0604069 0.0509112 -0.0768275 0.0714287 0.051167 -0.0551239 0.0730923 0.0475634 
-0.140015 0.0779433 0.0458594 -0.12327 0.104583 0.0456315 -0.113936 0.0734205 0.0592996 
-0.138459 0.0613986 0.067637 -0.0432796 0.0581043 0.0640267 -0.0477906 0.158746 0.0659288 
-0.00453707 0.0922243 0.0709755 -0.0767581 0.165738 0.0741983 -0.0830148 0.0584893 0.080369 
-0.0117544 0.0607322 0.0820762 -0.139368 0.0746509 0.0799289 -0.128153 0.126299 0.075741 
-0.118787 0.0651442 0.0862791 -0.0365367 0.0663548 0.0849477 -0.0378723 0.0825551 0.0888585 
-0.0152631 0.11294 0.0880842 -0.124089 0.0706046 0.0958278 -0.111344 0.0966418 0.0988193 
-0.0305908 0.145576 0.0995336 -0.0500296 0.172625 0.100884 -0.048534 0.0724246 0.105988 
-0.00829416 0.0877747 0.112328 -0.12704 0.113345 0.108144 -0.0669507 0.17464 0.118811 
-0.00892353 0.0555274 0.121289 -0.0984731 0.158828 0.126818 -0.118918 0.0599179 0.142406 
-0.101795 0.0719378 0.141917 -0.107727 0.102927 0.137164 -0.100485 0.116357 0.138583 
-0.000313631 0.118179 0.0498946 -0.0418666 0.199728 0.144649 -0.0369708 0.199479 0.144783 
-0.0767004 0.204005 -0.144856 -0.0823204 0.203805 -0.144407 -0.0768642 0.215747 -0.145189 
-0.0824842 0.215547 -0.14474 -0.052747 0.213674 -0.145159 -0.0446725 0.213677 -0.14516 
-0.0527533 0.235232 -0.145385 -0.0446788 0.235235 -0.145386 -0.0763209 0.20438 -0.139236 
-0.0819409 0.20418 -0.138787 -0.0764847 0.216121 -0.139569 -0.0821048 0.215921 -0.139121 
-0.0527465 0.213788 -0.137085 -0.0446719 0.213791 -0.137086 -0.0527528 0.235346 -0.137311 
-0.0446782 0.235349 -0.137311 -0.134908 0.260353 -0.13914 -0.119764 0.260353 -0.13914 
-0.134908 0.310715 -0.13914 -0.119764 0.310715 -0.13914 -0.122661 0.342264 -0.134308 
-0.0989354 0.342291 -0.134308 -0.120166 0.385599 -0.127867 -0.0998654 0.385512 -0.127799 
-0.134908 0.260353 -0.123995 -0.119764 0.260353 -0.123995 -0.134908 0.310715 -0.123995 
-0.119764 0.310715 -0.123995 -0.0915551 0.222584 -0.113901 -0.0796033 0.222642 -0.113901 
-0.0916395 0.258042 -0.113825 -0.0796876 0.2581 -0.113825 -0.0465618 0.27157 -0.11196 
-0.0288231 0.27157 -0.11196 -0.0465618 0.33263 -0.11196 -0.0288231 0.33263 -0.11196 
-0.12266 0.342417 -0.110583 -0.0989353 0.342443 -0.110583 -0.120051 0.385534 -0.10741 
-0.0998957 0.385454 -0.107407 -0.0915551 0.222532 -0.101949 -0.0796033 0.22259 -0.101949 
-0.0916394 0.257989 -0.101873 -0.0796877 0.258047 -0.101873 -0.0269462 0.207511 -0.0952827 
-0.0203934 0.207516 -0.0952985 -0.0269537 0.222664 -0.0950449 -0.0204008 0.222669 -0.0950606 
-0.0757909 0.250408 -0.0937294 -0.0622426 0.250408 -0.0937216 -0.0946142 0.269088 -0.0972784 
-0.0778733 0.269088 -0.0972784 -0.0465618 0.27157 -0.0942212 -0.0288231 0.27157 -0.0942212 
-0.0408846 0.284326 -0.0953429 -0.0757911 0.294186 -0.0937275 -0.0668827 0.289659 -0.0923268 
-0.0565777 0.288853 -0.096736 -0.0946142 0.326034 -0.0972784 -0.0778733 0.326034 -0.0972784 
-0.0465618 0.33263 -0.0942212 -0.0288231 0.33263 -0.0942212 -0.0612174 0.356088 -0.0953571 
-0.0408846 0.356088 -0.0953571 -0.0269249 0.207304 -0.08873 -0.020372 0.207309 -0.0887458 
-0.0453376 0.213096 -0.0896289 -0.0368298 0.212547 -0.0889046 -0.0269324 0.222457 -0.0884922 
-0.0203795 0.222462 -0.088508 -0.0448178 0.236466 -0.0891179 -0.03631 0.235916 -0.0883936 
-0.0563067 0.268436 -0.0858429 -0.0824028 0.284975 -0.0890633 -0.0735016 0.326989 -0.0860242 
-0.0460686 0.21256 -0.0811211 -0.0375607 0.212011 -0.0803968 -0.0455488 0.235929 -0.0806101 
-0.0370409 0.23538 -0.0798858 -0.0917563 0.25062 -0.0796302 -0.0797071 0.250758 -0.0784864 
-0.0741 0.250268 -0.0813249 -0.0622504 0.250407 -0.0801735 -0.0946142 0.269088 -0.0805375 
-0.0778733 0.269088 -0.0805375 -0.0668429 0.277608 -0.0769122 -0.12532 0.281778 -0.0807921 
-0.105585 0.281784 -0.0810402 -0.0408846 0.28434 -0.0750092 -0.0259814 0.286229 -0.0760164 
-0.00604773 0.28608 -0.0758945 -0.0917563 0.295221 -0.0796302 -0.0780086 0.295221 -0.0796302 
-0.0622506 0.294185 -0.0801717 -0.0523953 0.290152 -0.0800139 -0.0946142 0.326034 -0.0805375 
-0.0778733 0.326034 -0.0805375 -0.0651836 0.321214 -0.0810665 -0.125329 0.351068 -0.0808152 
-0.105595 0.351074 -0.0810634 -0.0612174 0.356094 -0.0750252 -0.0408846 0.356094 -0.0750252 
-0.0257634 0.356341 -0.0761778 -0.00582975 0.356193 -0.0760558 -0.0734 0.268554 -0.068656 
-0.05626 0.268591 -0.0687028 -0.0734549 0.327144 -0.0688843 -0.0563148 0.327182 -0.0689311 
-0.0917563 0.25062 -0.0658825 -0.0780086 0.25062 -0.0658825 -0.00275983 0.278896 -0.06373 
-0.125071 0.281794 -0.0610579 -0.105337 0.2818 -0.0613061 -0.0917563 0.295221 -0.0658825 
-0.0780086 0.295221 -0.0658825 -0.022103 0.346534 -0.0638675 -0.00276811 0.34654 -0.0637738 
-0.12508 0.351083 -0.0610812 -0.105347 0.35109 -0.0613293 -0.0916532 0.271866 -0.0595945 
-0.0735154 0.271866 -0.0595945 -0.0200851 0.276956 -0.0599174 -0.0261034 0.28634 -0.0560828 
-0.0634284 0.290908 -0.0599801 -0.0424969 0.290908 -0.0599801 -0.00817944 0.288126 -0.0598671 
-0.0916532 0.334579 -0.0596082 -0.0735154 0.334579 -0.0596082 -0.0258854 0.356451 -0.0562441 
-0.00595179 0.356303 -0.0561222 -0.0634284 0.365135 -0.0599801 -0.0424969 0.365135 -0.0599801 
-0.111821 0.256785 -0.0401722 -0.0968761 0.256785 -0.0401722 -0.136352 0.271928 -0.0395624 
-0.118813 0.271928 -0.0395624 -0.0916532 0.271883 -0.0414561 -0.0735154 0.271883 -0.0414561 
-0.0221884 0.27892 -0.0444885 -0.00285324 0.278926 -0.0443951 -0.0634284 0.290908 -0.0390487 
-0.0424969 0.290908 -0.0390487 -0.111821 0.306324 -0.0401722 -0.0968761 0.306324 -0.0401722 
-0.136352 0.332161 -0.0395617 -0.118813 0.332161 -0.0395617 -0.0916532 0.334581 -0.0414711 
-0.0735154 0.334581 -0.0414711 -0.0221967 0.346564 -0.0445323 -0.0028615 0.34657 -0.0444389 
-0.0634284 0.365135 -0.0390487 -0.0424969 0.365135 -0.0390487 -0.0244858 0.236255 -0.0342516 
-0.0235775 0.274099 -0.0332366 -0.0558067 0.24977 -0.0267347 -0.0584615 0.25481 -0.024749 
-0.0418595 0.24977 -0.0267347 -0.0435164 0.254963 -0.0247227 -0.111821 0.256785 -0.0252272 
-0.0968761 0.256785 -0.0252272 -0.0258201 0.282315 -0.028599 -0.0558067 0.295194 -0.0267347 
-0.0418595 0.295194 -0.0267347 -0.0586033 0.304405 -0.0247228 -0.0436584 0.304445 -0.024749 
-0.111821 0.306324 -0.0252272 -0.0968761 0.306324 -0.0252272 -0.0274483 0.35139 -0.0232083 
-0.0245101 0.234987 -0.0217031 -0.023659 0.272742 -0.0206884 -0.136352 0.271924 -0.0220232 
-0.118813 0.271924 -0.0220232 -0.0081053 0.282009 -0.021566 -0.136352 0.332164 -0.0220226 
[...]
POINT_DATA 1184
FIELD FieldData 8
id 1 1184 int
3781 3801 3749 3894 3745 3730 3789 3994 3744 
3970 2648 3927 2739 2901 3917 3937 3359 3023 
3952 3024 3738 2755 3785 3823 3296 3981 3931 
3685 3852 3908 3180 3844 3586 3773 3932 3808 
3966 3987 3830 3960 3360 3877 3903 3805 3716 
3943 3135 3242 3961 3896 3244 3951 3243 3731 
3809 3918 3727 3757 2962 3939 3758 2824 3714 
3814 3920 3873 3853 3995 2749 3879 3953 3885 
3938 3787 3815 3182 3975 3786 3297 2961 2484 
3746 3919 3779 3971 3831 3858 3925 2482 3962 
2902 3982 3720 3847 3688 3906 3782 3825 3836 
3950 3686 3988 3803 3940 3775 3587 3954 3996 
3909 2823 3728 3747 3911 3788 3854 3955 3631 
3760 3406 3765 3461 3761 3768 3871 3864 3910 
3863 2550 3968 3325 3721 3941 2509 3997 3136 
3754 3776 3963 3977 3632 3689 3729 3875 3956 
3719 4875 4879 4870 4866 4872 4868 4794 4798 
4796 4800 4871 4867 4865 4869 4795 4799 4797 
4793 4442 4446 4444 4448 4018 4022 4020 4024 
4443 4447 4445 4441 4690 4694 4692 4696 4226 
4230 4228 4232 4019 4023 4021 4017 4691 4695 
4693 4689 4850 4854 4852 4856 4602 4606 4330 
4334 4227 4231 4046 4604 4608 4042 4332 4336 
4229 4225 4044 4048 4851 4855 4786 4790 4853 
4849 4788 4792 4286 4605 4284 4787 4791 4789 
4785 4594 4598 4603 4607 4331 4335 4282 4084 
4088 4047 4058 4062 4596 4600 4601 4043 4333 
4329 4288 4086 4090 4045 4041 4060 4064 4283 
4287 4285 4281 4595 4599 4142 4085 4089 4597 
4593 4140 4144 4087 4091 4194 4198 4138 4059 
4026 4030 4063 4196 4200 4061 4057 4028 4032 
4475 4479 4258 4262 4195 4199 4139 4143 4027 
4031 4477 4481 4260 4264 4197 4193 4141 4137 
4029 4025 4658 4660 4578 4483 4582 4487 4476 
4480 4092 4580 4584 4485 4474 4478 4482 4094 
4659 4661 4259 4263 4096 4261 4257 4074 4095 
4579 4583 4076 4093 4581 4577 4078 4080 4075 
4073 4077 4082 4079 4083 4081 4484 4488 4362 
4366 4486 4473 4364 4368 4346 4350 4162 4166 
4348 4352 4164 4168 4674 4678 4363 4367 4676 
4680 4365 4361 4012 4634 4638 4675 4679 4347 
4351 4314 4636 4318 4640 4677 4673 4349 4345 
4316 4320 4354 4163 4167 4266 4270 4034 4038 
4268 4356 4272 4165 4161 4036 4040 4008 4730 
4734 4635 4639 4732 4736 4498 4315 4637 4633 
4319 4355 4146 4150 4317 4313 4148 4152 4004 
4006 4002 4735 4154 4158 4267 4271 4115 4119 
4035 4500 4269 4357 4265 4156 4160 4117 4121 
4068 4072 4770 4774 4731 4772 4776 4733 4729 
4499 4210 4214 4147 4151 4066 4070 4127 4071 
4039 4212 4216 4125 4149 4114 4145 4037 4033 
4005 4001 4771 4775 4773 4769 4530 4534 4387 
4391 4234 4238 4159 4116 4120 4123 4067 4536 
4389 4393 4501 4236 4240 4118 4122 4069 4065 
4418 4422 4211 4215 4155 4124 4532 4128 4420 
4424 4213 4209 4157 4153 4003 4007 4450 4454 
4586 4590 4531 4535 4388 4392 4235 4290 4239 
4294 4178 4182 4588 4452 4456 4592 4533 4529 
4394 4292 4237 4296 4233 4180 4184 4126 4113 
4587 4591 4419 4423 4589 4585 4390 4421 4417 
4451 4455 4555 4559 4395 4399 4338 4342 4179 
4183 4453 4449 4557 4561 4397 4340 4386 4344 
4181 4177 4611 4615 4506 4510 4291 4295 4613 
4508 4512 4293 4289 4623 4738 4722 4726 4742 
4556 4560 4740 4724 4728 4744 4400 4610 4617 
4339 4343 4396 4558 4562 4398 4341 4385 4337 
4619 4739 4621 4743 4741 4612 4616 4507 4511 
4737 4050 4614 4618 4509 4505 4052 4826 4827 
4830 4831 4810 4814 4876 4880 4624 4828 4832 
4723 4727 4812 4816 4563 4567 4725 4609 4721 
4565 4554 4620 4811 4877 4873 4815 4829 4825 
4622 4813 4809 4568 4564 4553 4051 4566 4055 
4053 4874 4878 3899 3849 3161 3811 3440 3905 
3818 3838 3876 3972 3934 3755 3945 3762 3784 
3860 3900 3726 3405 3985 3742 3957 3025 3717 
3964 3978 2591 2481 3778 3741 2927 2989 3922 
3856 3796 3867 3711 3806 3888 3441 2867 3869 
3737 3723 2483 3819 3712 3850 3881 3797 3665 
3324 3851 3812 3766 3208 3162 3614 3691 3668 
3263 3770 3840 2751 3262 3764 3385 2748 3889 
3890 3771 3914 3991 3946 2750 3777 2690 3791 
3442 3732 3870 3774 3799 3820 3718 3763 3999 
3828 3913 3915 3692 3916 2963 3923 2790 3993 
3979 3998 3974 3613 3667 3924 3739 2928 3790 
3947 3750 3980 3810 3772 3835 3715 3892 3857 
3751 3846 3298 3443 3935 3861 3733 3833 3958 
3983 3926 3800 3798 2753 3872 3843 3936 3326 
2868 3725 3967 3902 3792 3883 3930 3444 3693 
3848 3969 4714 4718 4716 4720 4715 4719 4717 
4713 4626 4630 4628 4632 4834 4838 4840 4836 
4515 4519 4517 4521 4835 4839 4833 4837 4627 
4631 4629 4625 4516 4520 4402 4406 4518 4522 
4404 4408 4523 4527 4525 4514 4698 4702 4704 
4403 4407 4700 4405 4401 4699 4703 4524 4528 
4701 4697 4526 4513 4754 4758 4756 4760 4426 
4430 4428 4432 4755 4759 4757 4753 4490 4494 
4427 4431 4370 4374 4298 4302 4492 4496 4429 
4425 4372 4376 4300 4304 4892 4896 4762 4766 
4764 4768 4491 4495 4202 4206 4493 4489 4204 
4208 4893 4889 4767 4686 4682 4546 4550 4458 
4462 4371 4375 4684 4688 4299 4303 4548 4552 
4464 4460 4373 4369 4301 4297 4763 4761 4765 
4662 4683 4687 4666 4670 4547 4551 4463 4459 
4664 4685 4681 4668 4203 4672 4207 4549 4545 
4457 4461 4205 4201 4858 4862 4860 4864 4859 
4863 4861 4857 4663 4646 4667 4671 4642 4657 
4669 4665 4644 4648 4647 4643 4641 4645 4890 
4894 4891 4895 4882 4888 4884 4881 4885 4886 
4887 4883 4802 4806 4808 4804 4650 4654 4652 
4656 4807 4803 4801 4805 4651 4655 4306 4310 
4653 4649 4308 4312 4010 4014 4016 4746 4750 
4748 4752 4378 4382 4380 4384 4751 4747 4706 
4710 4749 4745 4358 4540 4307 4311 4708 4712 
4360 4309 4192 4305 4379 4383 4502 4190 4186 
4381 4377 4188 4011 4015 4013 4009 4538 4542 
4707 4711 4359 4544 4709 4705 4243 4247 4103 
4504 4353 4185 4324 4328 4245 4249 4101 4105 
4503 4322 4326 4187 4099 4189 4539 4543 4191 
4541 4537 4244 4248 4497 4325 4321 4246 4250 
4410 4414 4323 4327 4100 4104 4412 4416 4102 
4106 4434 4438 4411 4415 4436 4440 4413 4409 
4255 4130 4134 4433 4253 4242 4132 4136 4822 
4818 4824 4820 4435 4439 4218 4222 4251 4170 
4174 4437 4220 4224 4172 4176 4823 4819 4778 
4782 4817 4821 4784 4780 4252 4256 4131 4135 
4254 4241 4133 4129 4842 4846 4779 4783 4844 
4848 4781 4777 4570 4574 4274 4278 4466 4470 
4219 4223 4054 4107 4111 4572 4576 4276 4468 
4472 4280 4221 4217 4056 4109 4098 4843 4847 
4845 4841 4467 4471 4171 4175 4469 4465 4173 
4169 4275 4279 4571 4575 4108 4112 4277 4573 
4569 4273 4110 4097 4049 
type 1 1184 int
2 2 2 2 2 2 2 2 2 
2 2 2 2 2 2 2 2 2 
2 2 2 2 2 2 2 2 2 
2 2 2 2 2 2 2 2 2 
2 2 2 2 2 2 2 2 2 
2 2 2 2 2 2 2 2 2 
2 2 2 2 2 2 2 2 2 
2 2 2 2 2 2 2 2 2 
2 2 2 2 2 2 2 2 2 
2 2 2 2 2 2 2 2 2 
2 2 2 2 2 2 2 2 2 
2 2 2 2 2 2 2 2 2 
2 2 2 2 2 2 2 2 2 
2 2 2 2 2 2 2 2 2 
2 2 2 2 2 2 2 2 2 
2 2 2 2 2 2 2 2 2 
2 2 2 2 2 2 2 2 2 
2 2 2 2 2 2 2 2 2 
2 2 2 2 2 2 2 2 2 
2 2 2 2 2 2 2 2 2 
2 2 2 2 2 2 2 2 2 
2 2 2 2 2 2 2 2 2 
2 2 2 2 2 2 2 2 2 
2 2 2 2 2 2 2 2 2 
2 2 2 2 2 2 2 2 2 
2 2 2 2 2 2 2 2 2 
2 2 2 2 2 2 2 2 2 
2 2 2 2 2 2 2 2 2 
2 2 2 2 2 2 2 2 2 
2 2 2 2 2 2 2 2 2 
2 2 2 2 2 2 2 2 2 
2 2 2 2 2 2 2 2 2 
2 2 2 2 2 2 2 2 2 
2 2 2 2 2 2 2 2 2 
2 2 2 2 2 2 2 2 2 
2 2 2 2 2 2 2 2 2 
2 2 2 2 2 2 2 2 2 
2 2 2 2 2 2 2 2 2 
2 2 2 2 2 2 2 2 2 
2 2 2 2 2 2 2 2 2 
2 2 2 2 2 2 2 2 2 
2 2 2 2 2 2 2 2 2 
2 2 2 2 2 2 2 2 2 
2 2 2 2 2 2 2 2 2 
2 2 2 2 2 2 2 2 2 
2 2 2 2 2 2 2 2 2 
2 2 2 2 2 2 2 2 2 
2 2 2 2 2 2 2 2 2 
2 2 2 2 2 2 2 2 2 
2 2 2 2 2 2 2 2 2 
2 2 2 2 2 2 2 2 2 
2 2 2 2 2 2 2 2 2 
2 2 2 2 2 2 2 2 2 
2 2 2 2 2 2 2 2 2 
2 2 2 2 2 2 2 2 2 
2 2 2 2 2 2 2 2 2 
2 2 2 2 2 2 2 2 2 
2 2 2 2 2 2 2 2 2 
2 2 2 2 2 2 2 2 2 
2 2 2 2 2 2 2 2 2 
2 2 2 2 2 2 2 2 2 
2 2 2 2 2 2 2 2 2 
2 2 2 2 2 2 2 2 2 
2 2 2 2 2 2 2 2 2 
2 2 2 2 2 2 2 2 2 
2 2 2 2 2 2 2 2 2 
2 2 2 2 2 2 2 2 2 
2 2 2 2 2 2 2 2 2 
2 2 2 2 2 2 2 2 2 
2 2 2 2 2 2 2 2 2 
2 2 2 2 2 2 2 2 2 
2 2 2 2 2 2 2 2 2 
2 2 2 2 2 2 2 2 2 
2 2 2 2 2 2 2 2 2 
2 2 2 2 2 2 2 2 2 
2 2 2 2 2 2 2 2 2 
2 2 2 2 2 2 2 2 2 
2 2 2 2 2 2 2 2 2 
2 2 2 2 2 2 2 2 2 
2 2 2 2 2 2 2 2 2 
2 2 2 2 2 2 2 2 2 
2 2 2 2 2 2 2 2 2 
2 2 2 2 2 2 2 2 2 
2 2 2 2 2 2 2 2 2 
2 2 2 2 2 2 2 2 2 
2 2 2 2 2 2 2 2 2 
2 2 2 2 2 2 2 2 2 
2 2 2 2 2 2 2 2 2 
2 2 2 2 2 2 2 2 2 
2 2 2 2 2 2 2 2 2 
2 2 2 2 2 2 2 2 2 
2 2 2 2 2 2 2 2 2 
2 2 2 2 2 2 2 2 2 
2 2 2 2 2 2 2 2 2 
2 2 2 2 2 2 2 2 2 
2 2 2 2 2 2 2 2 2 
2 2 2 2 2 2 2 2 2 
2 2 2 2 2 2 2 2 2 
2 2 2 2 2 2 2 2 2 
2 2 2 2 2 2 2 2 2 
2 2 2 2 2 2 2 2 2 
2 2 2 2 2 2 2 2 2 
2 2 2 2 2 2 2 2 2 
2 2 2 2 2 2 2 2 2 
2 2 2 2 2 2 2 2 2 
2 2 2 2 2 2 2 2 2 
2 2 2 2 2 2 2 2 2 
2 2 2 2 2 2 2 2 2 
2 2 2 2 2 2 2 2 2 
2 2 2 2 2 2 2 2 2 
2 2 2 2 2 2 2 2 2 
2 2 2 2 2 2 2 2 2 
2 2 2 2 2 2 2 2 2 
2 2 2 2 2 2 2 2 2 
2 2 2 2 2 2 2 2 2 
2 2 2 2 2 2 2 2 2 
2 2 2 2 2 2 2 2 2 
2 2 2 2 2 2 2 2 2 
2 2 2 2 2 2 2 2 2 
2 2 2 2 2 2 2 2 2 
2 2 2 2 2 2 2 2 2 
2 2 2 2 2 2 2 2 2 
2 2 2 2 2 2 2 2 2 
2 2 2 2 2 2 2 2 2 
2 2 2 2 2 2 2 2 2 
2 2 2 2 2 2 2 2 2 
2 2 2 2 2 2 2 2 2 
2 2 2 2 2 2 2 2 2 
2 2 2 2 2 2 2 2 2 
2 2 2 2 2 2 2 2 2 
2 2 2 2 2 2 2 2 2 
2 2 2 2 2 
i 3 1184 int
0 0 0 0 0 0 0 0 0 
0 0 0 0 0 0 0 0 0 
0 0 0 0 0 0 0 0 0 
0 0 0 0 0 0 0 0 0 
0 0 0 0 0 0 0 0 0 
0 0 0 0 0 0 0 0 0 
0 0 0 0 0 0 0 0 0 
0 0 0 0 0 0 0 0 0 
0 0 0 0 0 0 0 0 0 
0 0 0 0 0 0 0 0 0 
0 0 0 0 0 0 0 0 0 
0 0 0 0 0 0 0 0 0 
0 0 0 0 0 0 0 0 0 
0 0 0 0 0 0 0 0 0 
0 0 0 0 0 0 0 0 0 
0 0 0 0 0 0 0 0 0 
0 0 0 0 0 0 0 0 0 
0 0 0 0 0 0 0 0 0 
0 0 0 0 0 0 0 0 0 
0 0 0 0 0 0 0 0 0 
0 0 0 0 0 0 0 0 0 
0 0 0 0 0 0 0 0 0 
0 0 0 0 0 0 0 0 0 
0 0 0 0 0 0 0 0 0 
0 0 0 0 0 0 0 0 0 
0 0 0 0 0 0 0 0 0 
0 0 0 0 0 0 0 0 0 
0 0 0 0 0 0 0 0 0 
0 0 0 0 0 0 0 0 0 
0 0 0 0 0 0 0 0 0 
0 0 0 0 0 0 0 0 0 
0 0 0 0 0 0 0 0 0 
0 0 0 0 0 0 0 0 0 
0 0 0 0 0 0 0 0 0 
0 0 0 0 0 0 0 0 0 
0 0 0 0 0 0 0 0 0 
0 0 0 0 0 0 0 0 0 
0 0 0 0 0 0 0 0 0 
0 0 0 0 0 0 0 0 0 
0 0 0 0 0 0 0 0 0 
0 0 0 0 0 0 0 0 0 
0 0 0 0 0 0 0 0 0 
0 0 0 0 0 0 0 0 0 
0 0 0 0 0 0 0 0 0 
0 0 0 0 0 0 0 0 0 
0 0 0 0 0 0 0 0 0 
0 0 0 0 0 0 0 0 0 
0 0 0 0 0 0 0 0 0 
0 0 0 0 0 0 0 0 0 
0 0 0 0 0 0 0 0 0 
0 0 0 0 0 0 0 0 0 
0 0 0 0 0 0 0 0 0 
0 0 0 0 0 0 0 0 0 
0 0 0 0 0 0 0 0 0 
0 0 0 0 0 0 0 0 0 
0 0 0 0 0 0 0 0 0 
0 0 0 0 0 0 0 0 0 
0 0 0 0 0 0 0 0 0 
0 0 0 0 0 0 0 0 0 
0 0 0 0 0 0 0 0 0 
0 0 0 0 0 0 0 0 0 
0 0 0 0 0 0 0 0 0 
0 0 0 0 0 0 0 0 0 
0 0 0 0 0 0 0 0 0 
0 0 0 0 0 0 0 0 0 
0 0 0 0 0 0 0 0 0 
0 0 0 0 0 0 0 0 0 
0 0 0 0 0 0 0 0 0 
0 0 0 0 0 0 0 0 0 
0 0 0 0 0 0 0 0 0 
0 0 0 0 0 0 0 0 0 
0 0 0 0 0 0 0 0 0 
0 0 0 0 0 0 0 0 0 
0 0 0 0 0 0 0 0 0 
0 0 0 0 0 0 0 0 0 
0 0 0 0 0 0 0 0 0 
0 0 0 0 0 0 0 0 0 
0 0 0 0 0 0 0 0 0 
0 0 0 0 0 0 0 0 0 
0 0 0 0 0 0 0 0 0 
0 0 0 0 0 0 0 0 0 
0 0 0 0 0 0 0 0 0 
0 0 0 0 0 0 0 0 0 
0 0 0 0 0 0 0 0 0 
0 0 0 0 0 0 0 0 0 
0 0 0 0 0 0 0 0 0 
0 0 0 0 0 0 0 0 0 
0 0 0 0 0 0 0 0 0 
0 0 0 0 0 0 0 0 0 
0 0 0 0 0 0 0 0 0 
0 0 0 0 0 0 0 0 0 
0 0 0 0 0 0 0 0 0 
0 0 0 0 0 0 0 0 0 
0 0 0 0 0 0 0 0 0 
0 0 0 0 0 0 0 0 0 
0 0 0 0 0 0 0 0 0 
0 0 0 0 0 0 0 0 0 
0 0 0 0 0 0 0 0 0 
0 0 0 0 0 0 0 0 0 
0 0 0 0 0 0 0 0 0 
0 0 0 0 0 0 0 0 0 
0 0 0 0 0 0 0 0 0 
0 0 0 0 0 0 0 0 0 
0 0 0 0 0 0 0 0 0 
0 0 0 0 0 0 0 0 0 
0 0 0 0 0 0 0 0 0 
0 0 0 0 0 0 0 0 0 
0 0 0 0 0 0 0 0 0 
0 0 0 0 0 0 0 0 0 
0 0 0 0 0 0 0 0 0 
0 0 0 0 0 0 0 0 0 
0 0 0 0 0 0 0 0 0 
0 0 0 0 0 0 0 0 0 
0 0 0 0 0 0 0 0 0 
0 0 0 0 0 0 0 0 0 
0 0 0 0 0 0 0 0 0 
0 0 0 0 0 0 0 0 0 
0 0 0 0 0 0 0 0 0 
0 0 0 0 0 0 0 0 0 
0 0 0 0 0 0 0 0 0 
0 0 0 0 0 0 0 0 0 
0 0 0 0 0 0 0 0 0 
0 0 0 0 0 0 0 0 0 
0 0 0 0 0 0 0 0 0 
0 0 0 0 0 0 0 0 0 
0 0 0 0 0 0 0 0 0 
0 0 0 0 0 0 0 0 0 
0 0 0 0 0 0 0 0 0 
0 0 0 0 0 0 0 0 0 
0 0 0 0 0 0 0 0 0 
0 0 0 0 0 0 0 0 0 
0 0 0 0 0 0 0 0 0 
0 0 0 0 0 0 0 0 0 
0 0 0 0 0 0 0 0 0 
0 0 0 0 0 0 0 0 0 
0 0 0 0 0 0 0 0 0 
0 0 0 0 0 0 0 0 0 
0 0 0 0 0 0 0 0 0 
0 0 0 0 0 0 0 0 0 
0 0 0 0 0 0 0 0 0 
0 0 0 0 0 0 0 0 0 
0 0 0 0 0 0 0 0 0 
0 0 0 0 0 0 0 0 0 
0 0 0 0 0 0 0 0 0 
0 0 0 0 0 0 0 0 0 
0 0 0 0 0 0 0 0 0 
0 0 0 0 0 0 0 0 0 
0 0 0 0 0 0 0 0 0 
0 0 0 0 0 0 0 0 0 
0 0 0 0 0 0 0 0 0 
0 0 0 0 0 0 0 0 0 
0 0 0 0 0 0 0 0 0 
0 0 0 0 0 0 0 0 0 
0 0 0 0 0 0 0 0 0 
0 0 0 0 0 0 0 0 0 
0 0 0 0 0 0 0 0 0 
0 0 0 0 0 0 0 0 0 
0 0 0 0 0 0 0 0 0 
0 0 0 0 0 0 0 0 0 
0 0 0 0 0 0 0 0 0 
0 0 0 0 0 0 0 0 0 
0 0 0 0 0 0 0 0 0 
0 0 0 0 0 0 0 0 0 
0 0 0 0 0 0 0 0 0 
0 0 0 0 0 0 0 0 0 
0 0 0 0 0 0 0 0 0 
0 0 0 0 0 0 0 0 0 
0 0 0 0 0 0 0 0 0 
0 0 0 0 0 0 0 0 0 
0 0 0 0 0 0 0 0 0 
0 0 0 0 0 0 0 0 0 
0 0 0 0 0 0 0 0 0 
0 0 0 0 0 0 0 0 0 
0 0 0 0 0 0 0 0 0 
0 0 0 0 0 0 0 0 0 
0 0 0 0 0 0 0 0 0 
0 0 0 0 0 0 0 0 0 
0 0 0 0 0 0 0 0 0 
0 0 0 0 0 0 0 0 0 
0 0 0 0 0 0 0 0 0 
0 0 0 0 0 0 0 0 0 
0 0 0 0 0 0 0 0 0 
0 0 0 0 0 0 0 0 0 
0 0 0 0 0 0 0 0 0 
0 0 0 0 0 0 0 0 0 
0 0 0 0 0 0 0 0 0 
0 0 0 0 0 0 0 0 0 
0 0 0 0 0 0 0 0 0 
0 0 0 0 0 0 0 0 0 
0 0 0 0 0 0 0 0 0 
0 0 0 0 0 0 0 0 0 
0 0 0 0 0 0 0 0 0 
0 0 0 0 0 0 0 0 0 
0 0 0 0 0 0 0 0 0 
0 0 0 0 0 0 0 0 0 
0 0 0 0 0 0 0 0 0 
0 0 0 0 0 0 0 0 0 
0 0 0 0 0 0 0 0 0 
0 0 0 0 0 0 0 0 0 
0 0 0 0 0 0 0 0 0 
0 0 0 0 0 0 0 0 0 
0 0 0 0 0 0 0 0 0 
0 0 0 0 0 0 0 0 0 
0 0 0 0 0 0 0 0 0 
0 0 0 0 0 0 0 0 0 
0 0 0 0 0 0 0 0 0 
0 0 0 0 0 0 0 0 0 
0 0 0 0 0 0 0 0 0 
0 0 0 0 0 0 0 0 0 
0 0 0 0 0 0 0 0 0 
0 0 0 0 0 0 0 0 0 
0 0 0 0 0 0 0 0 0 
0 0 0 0 0 0 0 0 0 
0 0 0 0 0 0 0 0 0 
0 0 0 0 0 0 0 0 0 
0 0 0 0 0 0 0 0 0 
0 0 0 0 0 0 0 0 0 
0 0 0 0 0 0 0 0 0 
0 0 0 0 0 0 0 0 0 
0 0 0 0 0 0 0 0 0 
0 0 0 0 0 0 0 0 0 
0 0 0 0 0 0 0 0 0 
0 0 0 0 0 0 0 0 0 
0 0 0 0 0 0 0 0 0 
0 0 0 0 0 0 0 0 0 
0 0 0 0 0 0 0 0 0 
0 0 0 0 0 0 0 0 0 
0 0 0 0 0 0 0 0 0 
0 0 0 0 0 0 0 0 0 
0 0 0 0 0 0 0 0 0 
0 0 0 0 0 0 0 0 0 
0 0 0 0 0 0 0 0 0 
0 0 0 0 0 0 0 0 0 
0 0 0 0 0 0 0 0 0 
0 0 0 0 0 0 0 0 0 
0 0 0 0 0 0 0 0 0 
0 0 0 0 0 0 0 0 0 
0 0 0 0 0 0 0 0 0 
0 0 0 0 0 0 0 0 0 
0 0 0 0 0 0 0 0 0 
0 0 0 0 0 0 0 0 0 
0 0 0 0 0 0 0 0 0 
0 0 0 0 0 0 0 0 0 
0 0 0 0 0 0 0 0 0 
0 0 0 0 0 0 0 0 0 
0 0 0 0 0 0 0 0 0 
0 0 0 0 0 0 0 0 0 
0 0 0 0 0 0 0 0 0 
0 0 0 0 0 0 0 0 0 
0 0 0 0 0 0 0 0 0 
0 0 0 0 0 0 0 0 0 
0 0 0 0 0 0 0 0 0 
0 0 0 0 0 0 0 0 0 
0 0 0 0 0 0 0 0 0 
0 0 0 0 0 0 0 0 0 
0 0 0 0 0 0 0 0 0 
0 0 0 0 0 0 0 0 0 
0 0 0 0 0 0 0 0 0 
0 0 0 0 0 0 0 0 0 
0 0 0 0 0 0 0 0 0 
0 0 0 0 0 0 0 0 0 
0 0 0 0 0 0 0 0 0 
0 0 0 0 0 0 0 0 0 
0 0 0 0 0 0 0 0 0 
0 0 0 0 0 0 0 0 0 
0 0 0 0 0 0 0 0 0 
0 0 0 0 0 0 0 0 0 
0 0 0 0 0 0 0 0 0 
0 0 0 0 0 0 0 0 0 
0 0 0 0 0 0 0 0 0 
0 0 0 0 0 0 0 0 0 
0 0 0 0 0 0 0 0 0 
0 0 0 0 0 0 0 0 0 
0 0 0 0 0 0 0 0 0 
0 0 0 0 0 0 0 0 0 
0 0 0 0 0 0 0 0 0 
0 0 0 0 0 0 0 0 0 
0 0 0 0 0 0 0 0 0 
0 0 0 0 0 0 0 0 0 
0 0 0 0 0 0 0 0 0 
0 0 0 0 0 0 0 0 0 
0 0 0 0 0 0 0 0 0 
0 0 0 0 0 0 0 0 0 
0 0 0 0 0 0 0 0 0 
0 0 0 0 0 0 0 0 0 
0 0 0 0 0 0 0 0 0 
0 0 0 0 0 0 0 0 0 
0 0 0 0 0 0 0 0 0 
0 0 0 0 0 0 0 0 0 
0 0 0 0 0 0 0 0 0 
0 0 0 0 0 0 0 0 0 
0 0 0 0 0 0 0 0 0 
0 0 0 0 0 0 0 0 0 
0 0 0 0 0 0 0 0 0 
0 0 0 0 0 0 0 0 0 
0 0 0 0 0 0 0 0 0 
0 0 0 0 0 0 0 0 0 
0 0 0 0 0 0 0 0 0 
0 0 0 0 0 0 0 0 0 
0 0 0 0 0 0 0 0 0 
0 0 0 0 0 0 0 0 0 
0 0 0 0 0 0 0 0 0 
0 0 0 0 0 0 0 0 0 
0 0 0 0 0 0 0 0 0 
0 0 0 0 0 0 0 0 0 
0 0 0 0 0 0 0 0 0 
0 0 0 0 0 0 0 0 0 
0 0 0 0 0 0 0 0 0 
0 0 0 0 0 0 0 0 0 
0 0 0 0 0 0 0 0 0 
0 0 0 0 0 0 0 0 0 
0 0 0 0 0 0 0 0 0 
0 0 0 0 0 0 0 0 0 
0 0 0 0 0 0 0 0 0 
0 0 0 0 0 0 0 0 0 
0 0 0 0 0 0 0 0 0 
0 0 0 0 0 0 0 0 0 
0 0 0 0 0 0 0 0 0 
0 0 0 0 0 0 0 0 0 
0 0 0 0 0 0 0 0 0 
0 0 0 0 0 0 0 0 0 
0 0 0 0 0 0 0 0 0 
0 0 0 0 0 0 0 0 0 
0 0 0 0 0 0 0 0 0 
0 0 0 0 0 0 0 0 0 
0 0 0 0 0 0 0 0 0 
0 0 0 0 0 0 0 0 0 
0 0 0 0 0 0 0 0 0 
0 0 0 0 0 0 0 0 0 
0 0 0 0 0 0 0 0 0 
0 0 0 0 0 0 0 0 0 
0 0 0 0 0 0 0 0 0 
0 0 0 0 0 0 0 0 0 
0 0 0 0 0 0 0 0 0 
0 0 0 0 0 0 0 0 0 
0 0 0 0 0 0 0 0 0 
0 0 0 0 0 0 0 0 0 
0 0 0 0 0 0 0 0 0 
0 0 0 0 0 0 0 0 0 
0 0 0 0 0 0 0 0 0 
0 0 0 0 0 0 0 0 0 
0 0 0 0 0 0 0 0 0 
0 0 0 0 0 0 0 0 0 
0 0 0 0 0 0 0 0 0 
0 0 0 0 0 0 0 0 0 
0 0 0 0 0 0 0 0 0 
0 0 0 0 0 0 0 0 0 
0 0 0 0 0 0 0 0 0 
0 0 0 0 0 0 0 0 0 
0 0 0 0 0 0 0 0 0 
0 0 0 0 0 0 0 0 0 
0 0 0 0 0 0 0 0 0 
0 0 0 0 0 0 0 0 0 
0 0 0 0 0 0 0 0 0 
0 0 0 0 0 0 0 0 0 
0 0 0 0 0 0 0 0 0 
0 0 0 0 0 0 0 0 0 
0 0 0 0 0 0 0 0 0 
0 0 0 0 0 0 0 0 0 
0 0 0 0 0 0 0 0 0 
0 0 0 0 0 0 0 0 0 
0 0 0 0 0 0 0 0 0 
0 0 0 0 0 0 0 0 0 
0 0 0 0 0 0 0 0 0 
0 0 0 0 0 0 0 0 0 
0 0 0 0 0 0 0 0 0 
0 0 0 0 0 0 0 0 0 
0 0 0 0 0 0 0 0 0 
0 0 0 0 0 0 0 0 0 
0 0 0 0 0 0 0 0 0 
0 0 0 0 0 0 0 0 0 
0 0 0 0 0 0 0 0 0 
0 0 0 0 0 0 0 0 0 
0 0 0 0 0 0 0 0 0 
0 0 0 0 0 0 0 0 0 
0 0 0 0 0 0 0 0 0 
0 0 0 0 0 0 0 0 0 
0 0 0 0 0 0 0 0 0 
0 0 0 0 0 0 0 0 0 
0 0 0 0 0 0 0 0 0 
0 0 0 0 0 0 0 0 0 
0 0 0 0 0 0 0 0 0 
0 0 0 0 0 0 0 0 0 
0 0 0 0 0 0 0 0 0 
0 0 0 0 0 0 0 0 0 
0 0 0 0 0 0 0 0 0 
0 0 0 0 0 0 0 0 0 
0 0 0 0 0 0 0 0 0 
0 0 0 0 0 0 0 0 0 
0 0 0 0 0 0 0 0 0 
0 0 0 0 0 0 0 0 0 
0 0 0 0 0 0 0 0 0 
0 0 0 0 0 0 0 0 0 
0 0 0 0 0 0 0 0 0 
0 0 0 0 0 0 
v 3 1184 double
0.0080156891962 -0.0015029605931 0.004447886628 0.010048934566 -0.00070430313784 0.0034683114765 -0.19048707261 0.037453699347 -0.044591951551 
0.0015701205898 -4.843480566e-05 -0.032346434743 -0.0056303209371 0.0085283445581 0.016039859049 -0.029080006669 0.04353332093 0.035337047209 
-0.084222972431 0.081829535961 -0.0015657430505 -0.015970077835 0.15166809512 0.0078683031147 0.0084999301845 0.1323890659 0.0081926522313 
0.053223610559 0.075188324127 0.0077208849171 -0.027173646627 0.011902077028 0.021408443641 -0.01040054753 0.0058004044742 0.04555054737 
0.0086390268809 0.038845535794 -0.0015567670795 0.019798951085 0.040401127349 0.0076420378047 -0.078830096885 0.05744859893 0.00019912973901 
0.00042695319134 0.13846042764 0.029105660503 -0.097613623005 0.14261836488 -0.069878233524 0.056732275107 -0.039185307936 -0.0066811744503 
-0.073359751146 0.048740936439 0.033533506534 -0.040629181533 0.011950981917 0.025322700445 0.00030317957686 0.049567823366 -0.018354212932 
-0.0030698152518 -0.047452105946 -0.019269619845 -0.1521734376 0.090918890569 -0.019684191276 0.029483446629 0.02126726561 0.019328405917 
0.012718550083 0.067616469755 0.01425317236 0.096087284017 0.12261288527 -0.004294039915 -0.055110835015 0.016838623604 0.044337729087 
0.017418324533 0.057616216922 -0.030352324845 -0.024108631974 0.052866387327 -0.0092589620461 -0.067244853967 0.04522047833 -0.011281584556 
-0.005644904192 0.11634111591 0.004857108426 -0.023837693753 0.013424326694 0.030482934101 -0.12700203971 0.048571700113 0.064957662293 
-0.046543241901 0.073906791384 0.057776194531 -0.0032792434209 0.15987574977 -0.11366743156 -0.013011560337 0.21057775716 -0.067361238852 
-0.1632132347 0.016458060305 -0.098071338305 -0.031250205073 0.21919385107 0.082559184695 -0.02568388976 0.17898130461 0.043235618101 
0.039880780314 0.026113743392 0.024039611571 -0.1093329276 0.013073293453 -0.054392005946 -0.084078667498 0.04976864582 -0.029746205785 
0.035121297983 0.12847363527 0.096812815135 -0.043962486341 0.0078226513206 0.0099943416888 0.047803103404 -0.019324961862 -0.018901646946 
0.010421709988 0.032597662155 0.089304931032 0.048145546629 0.065638895238 -0.073652038648 8.7304082862e-05 0.05658216547 0.0490846904 
0.095677381331 0.0044200649861 -0.086041273012 0.042602169189 0.089323789222 -0.065956124659 -0.011140416409 0.097767829241 -0.12921837017 
0.023475480505 0.23269993324 -0.13228825416 0.070840408429 0.24857152678 -0.025740045988 -0.10514529648 0.01736526256 0.032910920883 
0.088817694295 0.1124998154 -0.053149249242 0.015727314557 0.021455075493 -0.0024677751594 -0.023683525094 0.038479039595 0.077669425022 
0.17906924697 0.04465336239 0.12954131523 -0.0039167831326 0.051254836739 -0.001557137884 -0.016476201133 0.099454444818 -0.084306564822 
0.21273066105 0.083784470045 0.0040210919325 0.092836600924 0.11632370629 -0.033720182364 -0.12138748745 0.023556564993 -0.062933400745 
0.12805066387 0.097112908791 0.070525714734 0.028538407798 0.025056636625 -0.064268107381 -0.041178332009 0.14957725344 0.14796284926 
0.032153006952 0.017443458787 0.013840565836 0.11675560386 0.0055103898253 0.016518092401 0.065426130544 0.13385490915 0.035482408426 
-0.033229108723 0.13146619811 -0.072439225811 -0.15104217532 0.21350433729 -0.08847513098 -0.034575399922 0.014476296317 -0.0031718926662 
0.031590655792 0.043572963739 -0.02529784089 0.066069911894 0.030486271706 0.011613924384 0.0094198569489 0.15103026516 -0.022541178981 
-0.044097505797 -0.017331996616 -0.013690871854 0.027032685635 0.021794619309 -0.024559164227 0.068650783752 0.018026213225 0.060475464125 
0.0027558020571 0.066480200587 0.020948937278 0.0720265258 0.092481050782 0.10567728676 -0.14265671729 0.14287988695 -0.12975060637 