# vtk DataFile Version 5.1
Generated by LIGGGHTS
ASCII
DATASET POLYDATA
POINTS 1205 float
-0.136122 0.0558905 -0.143477 -0.139162 0.0694393 -0.143094 -0.102969 0.0879412 -0.144634 
-0.143248 0.0610644 -0.137068 -0.119453 0.0592605 -0.135892 -0.0177561 0.0788559 -0.138986 
-0.0131558 0.11175 -0.138049 -0.103901 0.133048 -0.141164 -0.0714359 0.137616 -0.140925 
-0.14244 0.143931 -0.141512 -0.0805558 0.0611436 -0.133512 -0.00181896 0.0645332 -0.133036 
-0.131796 0.0752422 -0.133429 -0.0395403 0.0780226 -0.1275 -0.0941392 0.0957029 -0.132286 
-0.0230733 0.135201 -0.127613 -0.135494 0.145641 -0.131207 -0.000575562 0.143794 -0.128795 
-0.13986 0.0627057 -0.126727 -0.0209844 0.100084 -0.125989 -0.129825 0.0564915 -0.116959 
-0.118316 0.0552995 -0.119256 -0.144212 0.074261 -0.116299 -0.141551 0.0924895 -0.113672 
-0.0336438 0.0939971 -0.116063 -0.0664634 0.119467 -0.118693 -0.140598 0.0594039 -0.11153 
-0.0962227 0.0619122 -0.109544 -0.0581352 0.084944 -0.106204 -0.0380125 0.0827723 -0.112011 
-0.131152 0.0945119 -0.111302 -0.0829754 0.134044 -0.110003 -0.05769 0.0691284 -0.0989627 
-0.0274232 0.0617448 -0.0988089 -0.0251878 0.108277 -0.0990092 -0.0750963 0.130709 -0.103399 
-0.0584983 0.144575 -0.10344 -0.143422 0.0717596 -0.0949732 -0.118018 0.179065 -0.090037 
-0.0715768 0.159696 -0.0839604 -0.0426864 0.0574352 -0.0796172 -0.133123 0.0621161 -0.0788037 
-0.0472474 0.0820443 -0.0799357 -0.00541401 0.0554796 -0.0680927 -0.114097 0.074813 -0.0731321 
-0.00435142 0.0802715 -0.0708612 -0.109894 0.0899512 -0.0729597 -0.0378986 0.132194 -0.0725466 
-0.122095 0.200599 -0.0709163 -0.0178746 0.0568374 -0.0652137 -0.0426568 0.101566 -0.0670224 
-0.134561 0.115062 -0.0642269 -0.0265483 0.137648 -0.0669631 -0.000142575 0.196951 -0.0271529 
-0.0653647 0.0616566 -0.0581833 -0.0960291 0.11818 -0.0543864 -0.00598706 0.128831 -0.0580768 
-0.0703078 0.0609607 -0.0479917 -0.121516 0.0755361 -0.0450021 -0.0178138 0.0795579 -0.0475623 
-0.00661306 0.0811883 -0.0447856 -0.00627394 0.117419 -0.0413218 -0.0183581 0.0687343 -0.0330166 
-0.0368568 0.0924776 -0.0327265 -0.134933 0.110599 -0.0370215 -0.0526802 0.147762 -0.0294239 
-0.0759452 0.199322 -0.0331133 -0.00288717 0.118101 -0.0254175 -0.0264129 0.13304 -0.0299004 
-0.121877 0.0559352 -0.015667 -0.105976 0.0601863 -0.0220495 -0.0631997 0.0790305 -0.0210081 
-0.0147769 0.0860583 -0.0205717 -0.132346 0.150151 -0.0173042 -0.131595 0.0587979 -0.0136683 
-0.0384951 0.0644496 -0.00941662 -0.131841 0.0797743 -0.00879067 -0.0164641 0.14465 -0.0154733 
-0.0882551 0.0612632 -0.00476263 -0.0169376 0.0563075 -0.000536774 -0.00208878 0.0573972 -0.00664393 
-0.127262 0.0656741 -0.00444449 -0.0438434 0.0720443 -0.00514603 -0.106602 0.0823522 -0.00692629 
-0.0795745 0.101284 -0.00634186 -0.109913 0.199563 -0.0639515 -0.109941 0.199565 -0.0601115 
-0.106101 0.199543 -0.0600883 -0.106073 0.199541 -0.0639284 -0.138146 0.0616151 0.00155004 
-0.0302827 0.0550767 0.0104152 -0.122065 0.0754416 0.0137535 -0.0150312 0.0805722 0.0146391 
-0.010602 0.0925304 0.00927164 -0.132638 0.0679203 0.0216254 -0.112672 0.0641862 0.017055 
-0.0199626 0.066067 0.0161259 -0.144749 0.0713422 0.0175405 -0.131182 0.0902591 0.0225006 
-0.0992933 0.0852418 0.0163261 -0.112683 0.0551614 0.024097 -0.106328 0.090632 0.0274584 
-0.102117 0.15318 0.0271236 -0.120338 0.0834056 0.0320208 -0.0418569 0.0970324 0.0318347 
-0.0875594 0.138019 0.038124 -0.0237631 0.0796566 0.0392197 -0.0132275 0.0812491 0.0433105 
-0.0917442 0.0856259 0.0431618 -0.139932 0.194385 0.0432963 -0.0336252 0.0607194 0.0528925 
-0.0769269 0.0725384 0.0516026 -0.0539031 0.0742932 0.0480645 -0.140449 0.0789297 0.0457858 
-0.122527 0.106933 0.0469657 -0.00193704 0.121731 0.0501058 -0.073637 0.131592 0.0477695 
-0.144523 0.145703 0.0480997 -0.11058 0.14268 0.0481259 -0.0457037 0.0572424 0.0629987 
-0.115318 0.0744825 0.0620645 -0.0500831 0.164063 0.0651903 -0.139352 0.0612554 0.0692808 
-0.00307638 0.0947714 0.0724026 -0.077319 0.171689 0.0752254 -0.0825418 0.0586872 0.0832144 
-0.139504 0.0754516 0.08295 -0.129549 0.130118 0.0749185 -0.0131142 0.0617421 0.0831994 
-0.116978 0.0658989 0.0888421 -0.038342 0.0673123 0.0871991 -0.0458727 0.0845109 0.0880032 
-0.0168093 0.116169 0.0891635 -0.122995 0.071798 0.0984516 -0.11041 0.097623 0.101829 
-0.0306901 0.14959 0.0994339 -0.0490099 0.178399 0.100349 -0.0485474 0.0733019 0.109048 
-0.127319 0.114176 0.111966 -0.00522127 0.0903334 0.112598 -0.0675109 0.181393 0.119246 
-0.00672317 0.0558609 0.122054 -0.100812 0.16375 0.126059 -0.121259 0.0602874 0.142332 
-0.0981963 0.0722937 0.14206 -0.109711 0.1049 0.13654 -0.102206 0.118279 0.137871 
-0.0844746 0.207603 -0.147219 -0.0771357 0.207667 -0.147335 -0.0534587 0.21922 -0.145696 
-0.0437121 0.219224 -0.145697 -0.084724 0.226742 -0.147416 -0.0774217 0.226383 -0.147091 
-0.0534674 0.24784 -0.146008 -0.0437207 0.247844 -0.146009 -0.0837732 0.208296 -0.139928 
-0.0764817 0.208665 -0.140756 -0.053458 0.219376 -0.135949 -0.0437112 0.219381 -0.13595 
-0.0840793 0.227696 -0.14055 -0.0767879 0.228066 -0.141378 -0.0534666 0.247996 -0.136261 
-0.0437198 0.248 -0.136262 -0.135744 0.269205 -0.139976 -0.118928 0.269205 -0.139976 
-0.135744 0.326463 -0.139976 -0.118928 0.326463 -0.139976 -0.123898 0.354178 -0.137553 
-0.0985009 0.354207 -0.137553 -0.135744 0.269205 -0.123159 -0.118928 0.269205 -0.123159 
-0.135744 0.326463 -0.123159 -0.118928 0.326463 -0.123159 -0.119836 0.378126 -0.127 
-0.0999856 0.37799 -0.126893 -0.0926725 0.227416 -0.114503 -0.0790484 0.227486 -0.114503 
-0.0927739 0.269412 -0.114411 -0.0791498 0.269482 -0.114412 -0.0473979 0.280091 -0.112796 
-0.027987 0.280091 -0.112796 -0.0473979 0.348047 -0.112796 -0.027987 0.348047 -0.112796 
-0.123898 0.354344 -0.112155 -0.0985007 0.354372 -0.112156 -0.119658 0.378053 -0.106906 
-0.100032 0.377928 -0.106904 -0.0926724 0.227353 -0.100879 -0.0790484 0.227423 -0.100879 
-0.0927737 0.269348 -0.100788 -0.0791498 0.269419 -0.100788 -0.0954503 0.277939 -0.0981145 
-0.0770372 0.277939 -0.0981145 -0.0547995 0.299918 -0.0985039 -0.0954503 0.341781 -0.0981145 
-0.0770372 0.341781 -0.0981145 -0.0278062 0.212231 -0.0933839 -0.0195811 0.212239 -0.0934086 
-0.0485702 0.21791 -0.096514 -0.0383906 0.217172 -0.0955407 -0.0278181 0.234461 -0.0930077 
-0.0195929 0.234468 -0.0930325 -0.0478702 0.248332 -0.0958259 -0.0376907 0.247594 -0.0948525 
-0.0766294 0.25904 -0.0945633 -0.0614089 0.25904 -0.0945541 -0.0473979 0.280091 -0.0933851 
-0.027987 0.280091 -0.0933851 -0.0400485 0.292845 -0.0963252 -0.0848867 0.298214 -0.0904355 
-0.0686632 0.302642 -0.0923734 -0.0766295 0.309715 -0.0945611 -0.0473979 0.348047 -0.0933851 
-0.027987 0.348047 -0.0933851 -0.0620535 0.371505 -0.0963407 -0.0400485 0.371505 -0.0963407 
-0.039373 0.216452 -0.0853611 -0.0277726 0.211906 -0.0851592 -0.0195475 0.211913 -0.0851839 
-0.0495525 0.21719 -0.0863345 -0.0277844 0.234135 -0.084783 -0.0195593 0.234143 -0.0848078 
-0.0488526 0.247611 -0.0856464 -0.0386731 0.246874 -0.084673 -0.0556053 0.276994 -0.0872389 
-0.0744792 0.342438 -0.0874428 -0.0925924 0.259134 -0.0804663 -0.0802758 0.259388 -0.0783776 
-0.0735349 0.258785 -0.0814315 -0.061418 0.259039 -0.0793339 -0.0954503 0.277939 -0.0797014 
-0.0770372 0.277939 -0.0797014 -0.126169 0.290291 -0.0816152 -0.104762 0.290298 -0.081889 
-0.0661696 0.288451 -0.0760916 -0.0517988 0.299617 -0.0801365 -0.0264099 0.295176 -0.077158 
-0.00480408 0.295012 -0.0770235 -0.0925924 0.310632 -0.0804663 -0.0771725 0.310632 -0.0804663 
-0.0614182 0.309714 -0.0793317 -0.0954503 0.341781 -0.0797014 -0.0770372 0.341781 -0.0797014 
-0.0659217 0.335725 -0.0816781 -0.126179 0.366477 -0.0816407 -0.104772 0.366484 -0.0819147 
-0.0261695 0.372184 -0.0773359 -0.00456369 0.37202 -0.0772014 -0.074365 0.277127 -0.068374 
-0.0555528 0.277169 -0.0684266 -0.0400485 0.292861 -0.0743192 -0.0744267 0.342613 -0.0686307 
-0.0556144 0.342655 -0.0686833 -0.0620535 0.371511 -0.0743368 -0.0400485 0.371511 -0.0743368 
-0.0925924 0.259134 -0.0650464 -0.0771725 0.259134 -0.0650464 -0.0924893 0.280229 -0.0605716 
-0.0726793 0.280229 -0.0605716 -0.0206729 0.285151 -0.060354 -0.125894 0.290308 -0.0602088 
-0.104488 0.290315 -0.0604828 -0.00193708 0.287343 -0.0646651 -0.0642644 0.299775 -0.0608162 
-0.0416609 0.299775 -0.0608162 -0.0925924 0.310632 -0.0650464 -0.0771725 0.310632 -0.0650464 
-0.0924893 0.349839 -0.0605869 -0.0726793 0.349839 -0.0605869 -0.0229533 0.361876 -0.0648172 
-0.00194623 0.361883 -0.0647136 -0.125905 0.366494 -0.0602345 -0.104499 0.366501 -0.0605084 
-0.0642644 0.380898 -0.0608162 -0.0416609 0.380898 -0.0608162 -0.0265445 0.295298 -0.0555521 
-0.00720987 0.297321 -0.0598324 -0.0263041 0.372305 -0.0557301 -0.00469825 0.372142 -0.0555956 
-0.112657 0.265308 -0.0410083 -0.09604 0.265308 -0.0410083 -0.137188 0.280632 -0.0403982 
-0.117977 0.280632 -0.0403982 -0.0924893 0.280248 -0.0407609 -0.0726793 0.280248 -0.0407609 
-0.0230478 0.287369 -0.0437614 -0.00204044 0.287376 -0.043658 -0.0642644 0.299775 -0.0382126 
-0.0416609 0.299775 -0.0382126 -0.112657 0.321743 -0.0410083 -0.09604 0.321743 -0.0410083 
-0.137188 0.347762 -0.0403974 -0.117977 0.347762 -0.0403974 -0.0924893 0.349842 -0.0407777 
-0.0726793 0.349842 -0.0407777 -0.0230569 0.36191 -0.0438099 -0.00204957 0.361916 -0.0437065 
-0.0642644 0.380898 -0.0382126 -0.0416609 0.380898 -0.0382126 -0.0290913 0.243274 -0.0369031 
-0.0280116 0.287665 -0.0356967 -0.0566428 0.257954 -0.0275708 -0.0598484 0.263013 -0.0280199 
-0.0410234 0.257954 -0.0275708 -0.0432312 0.263189 -0.0279897 -0.112657 0.265308 -0.0243911 
-0.09604 0.265308 -0.0243911 -0.0264903 0.290921 -0.0302824 -0.0566428 0.310274 -0.0275708 
-0.0410234 0.310274 -0.0275708 -0.112657 0.321743 -0.0243911 -0.09604 0.321743 -0.0243911 
-0.0600113 0.319513 -0.0279898 -0.0433942 0.319559 -0.02802 -0.0283086 0.366867 -0.0242588 
-0.02912 0.241768 -0.0226827 -0.137188 0.280628 -0.0211868 -0.117977 0.280628 -0.0211868 
-0.0281085 0.286053 -0.0214768 -0.00734029 0.290578 -0.0224287 -0.137188 0.347765 -0.0211862 
[...]
POINT_DATA 1205
FIELD FieldData 8
id 1 1205 int
3781 3801 3749 3894 3745 3730 3789 3994 3744 
3970 2648 3927 2739 2901 3917 3937 3359 3858 
3023 3952 3738 2755 3785 3823 3296 3981 3024 
3931 3685 3852 3908 3180 3966 3844 3773 3932 
3808 3586 3987 3830 3960 3360 3877 3805 3716 
3943 3135 3903 3951 3961 3242 3896 3244 2750 
3731 3939 3809 3918 3727 3757 2962 2824 3714 
3814 3920 3873 3953 2749 3879 3885 3853 3938 
3787 3815 3182 3975 3297 2484 3746 3919 3779 
3971 3786 3831 2961 4914 4915 4919 4918 3925 
3962 2902 3782 2482 3982 3720 3847 3688 3825 
3906 3836 3950 3988 3803 3954 3686 3940 3587 
3775 3728 3747 3911 3788 3854 3955 3719 3996 
3909 2823 3406 3631 3765 3760 3461 3761 3768 
3864 3910 3871 3863 2550 3968 3325 3721 3941 
2509 3997 3136 3776 3754 3963 3977 3632 3689 
3729 3875 3956 4866 4870 4794 4798 4868 4872 
4796 4800 4867 4871 4795 4799 4869 4865 4797 
4793 4442 4446 4444 4448 4018 4022 4443 4447 
4445 4441 4020 4024 4690 4694 4692 4696 4226 
4230 4228 4232 4019 4023 4021 4017 4691 4695 
4693 4689 4330 4334 4042 4332 4336 4850 4854 
4786 4790 4852 4856 4788 4792 4602 4606 4227 
4231 4046 4605 4608 4604 4229 4225 4044 4048 
4791 4851 4855 4787 4853 4849 4789 4785 4286 
4284 4594 4598 4603 4607 4331 4335 4084 4088 
4282 4043 4058 4062 4596 4600 4601 4333 4329 
4288 4086 4090 4060 4064 4283 4287 4047 4285 
4281 4045 4041 4595 4599 4194 4198 4138 4085 
4089 4142 4026 4030 4597 4593 4196 4200 4140 
4144 4087 4091 4028 4032 4059 4063 4061 4057 
4475 4479 4258 4262 4195 4199 4139 4143 4027 
4031 4477 4481 4260 4264 4197 4193 4141 4137 
4029 4025 4658 4660 4578 4483 4582 4487 4476 
4480 4092 4580 4584 4478 4482 4485 4474 4094 
4659 4259 4263 4661 4096 4261 4257 4074 4095 
4579 4583 4076 4093 4581 4577 4078 4080 4075 
4073 4913 4916 4920 4917 4077 4082 4079 4083 
4081 4362 4366 4364 4368 4674 4678 4484 4488 
4346 4350 4162 4166 4676 4680 4486 4473 4348 
4352 4164 4168 4363 4367 4365 4361 4012 4634 
4638 4675 4679 4347 4351 4314 4636 4318 4640 
4677 4673 4349 4345 4316 4320 4354 4163 4167 
4266 4270 4146 4150 4034 4038 4268 4356 4272 
4148 4152 4165 4161 4036 4040 4008 4734 4730 
4635 4639 4498 4732 4315 4736 4637 4355 4319 
4633 4269 4317 4313 4004 4068 4072 4002 4154 
4158 4115 4119 4035 4500 4357 4156 4160 4117 
4121 4006 4731 4735 4770 4774 4772 4776 4499 
4234 4733 4729 4210 4214 4238 4066 4267 4070 
4271 4147 4127 4151 4071 4039 4236 4240 4265 
4212 4216 4001 4125 4149 4114 4005 4145 4037 
4033 4771 4775 4773 4769 4530 4534 4387 4391 
4159 4116 4120 4123 4067 4536 4389 4393 4501 
4118 4122 4069 4065 4586 4590 4418 4422 4211 
4215 4155 4124 4532 4128 4420 4424 4213 4209 
4157 4153 4003 4007 4450 4454 4531 4535 4388 
4392 4235 4290 4239 4178 4182 4588 4452 4456 
4592 4533 4529 4394 4292 4237 4296 4233 4180 
4184 4126 4113 4591 4338 4342 4294 4589 4585 
4340 4344 4451 4455 4587 4555 4559 4395 4399 
4419 4423 4453 4449 4390 4557 4561 4421 4417 
4397 4386 4611 4615 4506 4510 4291 4295 4179 
4183 4613 4508 4512 4293 4289 4181 4177 4623 
4738 4722 4726 4742 4556 4560 4740 4400 4610 
4724 4728 4744 4339 4343 4617 4396 4050 4558 
4562 4398 4385 4341 4337 4052 4619 4826 4830 
4814 4621 4832 4612 4616 4507 4511 4614 4618 
4509 4505 4827 4831 4874 4878 4810 4876 4624 
4880 4828 4739 4723 4727 4743 4812 4816 4567 
4741 4609 4725 4721 4737 4620 4875 4879 4811 
4877 4873 4815 4622 4829 4825 4813 4809 4564 
4568 4563 4051 4566 4553 4565 4554 4055 4053 
3899 3849 3161 3440 3818 3838 3811 3876 3405 
3972 3934 3755 3945 3762 3860 3784 3726 3985 
3900 3778 3957 3025 3717 3964 3978 2591 2481 
3741 3922 3856 3796 2927 3867 2989 3711 3806 
3888 3869 3723 3441 2867 3737 2483 3819 3850 
3614 3712 3881 3797 3324 3851 3766 3162 3665 
3812 3208 3840 2751 3691 3262 2748 3770 3889 
3758 3890 3771 3914 3991 2690 3995 3791 3946 
3742 3777 3732 3442 3870 3668 3799 3764 3263 
3828 3774 3385 3820 3718 3763 3999 3913 3915 
3692 3916 3923 2963 2790 3993 3979 3974 3998 
3667 3924 3613 2928 3772 3947 3750 3810 3739 
3790 3715 3857 3835 3892 3751 3298 3846 3443 
3935 3861 3733 3833 3958 3800 3926 3936 3798 
2753 3872 3967 3725 3902 3843 3326 2868 3792 
3883 3930 3444 3969 3693 3980 3848 4898 4902 
4900 4904 4714 4718 4716 4720 4899 4903 4901 
4897 4715 4719 4717 4713 4626 4630 4628 4632 
4834 4838 4840 4836 4515 4519 4517 4521 4835 
4839 4833 4837 4627 4631 4402 4406 4629 4625 
4404 4408 4516 4520 4518 4522 4523 4527 4525 
4514 4698 4702 4403 4407 4700 4704 4405 4401 
4703 4524 4528 4701 4697 4526 4513 4432 4754 
4758 4699 4756 4760 4426 4430 4428 4755 4759 
4490 4494 4757 4753 4427 4431 4370 4374 4298 
4302 4429 4492 4425 4496 4372 4376 4300 4304 
4890 4894 4892 4896 4762 4766 4491 4495 4764 
4768 4202 4206 4493 4489 4204 4208 4891 4895 
4893 4889 4767 4686 4682 4546 4550 4458 4462 
4371 4375 4684 4688 4299 4548 4552 4460 4464 
4373 4369 4763 4761 4765 4303 4301 4297 4662 
4683 4687 4666 4670 4547 4551 4459 4463 4664 
4203 4685 4207 4681 4668 4672 4549 4545 4457 
4461 4205 4201 4858 4862 4860 4864 4859 4863 
4861 4857 4663 4646 4667 4671 4642 4657 4669 
4665 4644 4648 4647 4643 4645 4641 4882 4883 
4886 4887 4884 4885 4888 4881 4802 4806 4808 
4804 4650 4654 4652 4656 4803 4807 4805 4801 
4010 4746 4750 4651 4655 4748 4752 4306 4310 
4653 4649 4308 4312 4016 4014 4378 4382 4380 
4384 4747 4751 4706 4710 4749 4745 4358 4540 
4307 4311 4708 4712 4360 4309 4192 4305 4379 
4383 4502 4186 4190 4381 4377 4188 4013 4009 
4015 4707 4711 4705 4243 4247 4709 4103 4504 
4353 4185 4328 4245 4249 4101 4105 4011 4538 
4542 4503 4322 4326 4359 4544 4099 4324 4189 
4187 4191 4244 4248 4497 4246 4250 4539 4543 
4410 4414 4323 4327 4541 4537 4100 4104 4412 
4416 4325 4321 4102 4106 4912 4908 4906 4910 
4434 4438 4436 4440 4905 4909 4911 4907 4411 
4415 4413 4409 4255 4130 4134 4433 4253 4242 
4132 4136 4818 4822 4820 4824 4435 4439 4218 
4222 4251 4170 4174 4437 4220 4224 4172 4176 
4819 4823 4778 4782 4821 4817 4784 4466 4470 
4252 4256 4054 4131 4135 4468 4472 4254 4241 
4056 4133 4129 4842 4846 4783 4844 4848 4780 
4570 4574 4274 4278 4219 4223 4107 4111 4572 
4576 4276 4280 4221 4217 4109 4098 4843 4847 
4779 4845 4841 4777 4781 4171 4175 4173 4169 
4275 4279 4571 4575 4467 4471 4108 4112 4277 
4573 4569 4469 4465 4273 4110 4097 4049 
type 1 1205 int
2 2 2 2 2 2 2 2 2 
2 2 2 2 2 2 2 2 2 
2 2 2 2 2 2 2 2 2 
2 2 2 2 2 2 2 2 2 
2 2 2 2 2 2 2 2 2 
2 2 2 2 2 2 2 2 2 
2 2 2 2 2 2 2 2 2 
2 2 2 2 2 2 2 2 2 
2 2 2 2 2 2 2 2 2 
2 2 2 2 2 2 2 2 2 
2 2 2 2 2 2 2 2 2 
2 2 2 2 2 2 2 2 2 
2 2 2 2 2 2 2 2 2 
2 2 2 2 2 2 2 2 2 
2 2 2 2 2 2 2 2 2 
2 2 2 2 2 2 2 2 2 
2 2 2 2 2 2 2 2 2 
2 2 2 2 2 2 2 2 2 
2 2 2 2 2 2 2 2 2 
2 2 2 2 2 2 2 2 2 
2 2 2 2 2 2 2 2 2 
2 2 2 2 2 2 2 2 2 
2 2 2 2 2 2 2 2 2 
2 2 2 2 2 2 2 2 2 
2 2 2 2 2 2 2 2 2 
2 2 2 2 2 2 2 2 2 
2 2 2 2 2 2 2 2 2 
2 2 2 2 2 2 2 2 2 
2 2 2 2 2 2 2 2 2 
2 2 2 2 2 2 2 2 2 
2 2 2 2 2 2 2 2 2 
2 2 2 2 2 2 2 2 2 
2 2 2 2 2 2 2 2 2 
2 2 2 2 2 2 2 2 2 
2 2 2 2 2 2 2 2 2 
2 2 2 2 2 2 2 2 2 
2 2 2 2 2 2 2 2 2 
2 2 2 2 2 2 2 2 2 
2 2 2 2 2 2 2 2 2 
2 2 2 2 2 2 2 2 2 
2 2 2 2 2 2 2 2 2 
2 2 2 2 2 2 2 2 2 
2 2 2 2 2 2 2 2 2 
2 2 2 2 2 2 2 2 2 
2 2 2 2 2 2 2 2 2 
2 2 2 2 2 2 2 2 2 
2 2 2 2 2 2 2 2 2 
2 2 2 2 2 2 2 2 2 
2 2 2 2 2 2 2 2 2 
2 2 2 2 2 2 2 2 2 
2 2 2 2 2 2 2 2 2 
2 2 2 2 2 2 2 2 2 
2 2 2 2 2 2 2 2 2 
2 2 2 2 2 2 2 2 2 
2 2 2 2 2 2 2 2 2 
2 2 2 2 2 2 2 2 2 
2 2 2 2 2 2 2 2 2 
2 2 2 2 2 2 2 2 2 
2 2 2 2 2 2 2 2 2 
2 2 2 2 2 2 2 2 2 
2 2 2 2 2 2 2 2 2 
2 2 2 2 2 2 2 2 2 
2 2 2 2 2 2 2 2 2 
2 2 2 2 2 2 2 2 2 
2 2 2 2 2 2 2 2 2 
2 2 2 2 2 2 2 2 2 
2 2 2 2 2 2 2 2 2 
2 2 2 2 2 2 2 2 2 
2 2 2 2 2 2 2 2 2 
2 2 2 2 2 2 2 2 2 
2 2 2 2 2 2 2 2 2 
2 2 2 2 2 2 2 2 2 
2 2 2 2 2 2 2 2 2 
2 2 2 2 2 2 2 2 2 
2 2 2 2 2 2 2 2 2 
2 2 2 2 2 2 2 2 2 
2 2 2 2 2 2 2 2 2 
2 2 2 2 2 2 2 2 2 
2 2 2 2 2 2 2 2 2 
2 2 2 2 2 2 2 2 2 
2 2 2 2 2 2 2 2 2 
2 2 2 2 2 2 2 2 2 
2 2 2 2 2 2 2 2 2 
2 2 2 2 2 2 2 2 2 
2 2 2 2 2 2 2 2 2 
2 2 2 2 2 2 2 2 2 
2 2 2 2 2 2 2 2 2 
2 2 2 2 2 2 2 2 2 
2 2 2 2 2 2 2 2 2 
2 2 2 2 2 2 2 2 2 
2 2 2 2 2 2 2 2 2 
2 2 2 2 2 2 2 2 2 
2 2 2 2 2 2 2 2 2 
2 2 2 2 2 2 2 2 2 
2 2 2 2 2 2 2 2 2 
2 2 2 2 2 2 2 2 2 
2 2 2 2 2 2 2 2 2 
2 2 2 2 2 2 2 2 2 
2 2 2 2 2 2 2 2 2 
2 2 2 2 2 2 2 2 2 
2 2 2 2 2 2 2 2 2 
2 2 2 2 2 2 2 2 2 
2 2 2 2 2 2 2 2 2 
2 2 2 2 2 2 2 2 2 
2 2 2 2 2 2 2 2 2 
2 2 2 2 2 2 2 2 2 
2 2 2 2 2 2 2 2 2 
2 2 2 2 2 2 2 2 2 
2 2 2 2 2 2 2 2 2 
2 2 2 2 2 2 2 2 2 
2 2 2 2 2 2 2 2 2 
2 2 2 2 2 2 2 2 2 
2 2 2 2 2 2 2 2 2 
2 2 2 2 2 2 2 2 2 
2 2 2 2 2 2 2 2 2 
2 2 2 2 2 2 2 2 2 
2 2 2 2 2 2 2 2 2 
2 2 2 2 2 2 2 2 2 
2 2 2 2 2 2 2 2 2 
2 2 2 2 2 2 2 2 2 
2 2 2 2 2 2 2 2 2 
2 2 2 2 2 2 2 2 2 
2 2 2 2 2 2 2 2 2 
2 2 2 2 2 2 2 2 2 
2 2 2 2 2 2 2 2 2 
2 2 2 2 2 2 2 2 2 
2 2 2 2 2 2 2 2 2 
2 2 2 2 2 2 2 2 2 
2 2 2 2 2 2 2 2 2 
2 2 2 2 2 2 2 2 2 
2 2 2 2 2 2 2 2 2 
2 2 2 2 2 2 2 2 2 
2 2 2 2 2 2 2 2 2 
2 2 2 2 2 2 2 2 
i 3 1205 int
0 0 0 0 0 0 0 0 0 
0 0 0 0 0 0 0 0 0 
0 0 0 0 0 0 0 0 0 
0 0 0 0 0 0 0 0 0 
0 0 0 0 0 0 0 0 0 
0 0 0 0 0 0 0 0 0 
0 0 0 0 0 0 0 0 0 
0 0 0 0 0 0 0 0 0 
0 0 0 0 0 0 0 0 0 
0 0 0 0 0 0 0 0 0 
0 0 0 0 0 0 0 0 0 
0 0 0 0 0 0 0 0 0 
0 0 0 0 0 0 0 0 0 
0 0 0 0 0 0 0 0 0 
0 0 0 0 0 0 0 0 0 
0 0 0 0 0 0 0 0 0 
0 0 0 0 0 0 0 0 0 
0 0 0 0 0 0 0 0 0 
0 0 0 0 0 0 0 0 0 
0 0 0 0 0 0 0 0 0 
0 0 0 0 0 0 0 0 0 
0 0 0 0 0 0 0 0 0 
0 0 0 0 0 0 0 0 0 
0 0 0 0 0 0 0 0 0 
0 0 0 0 0 0 0 0 0 
0 0 0 0 0 0 0 0 0 
0 0 0 0 0 0 0 0 0 
0 0 0 0 0 0 0 0 0 
0 0 0 0 0 0 0 0 0 
0 0 0 0 0 0 0 0 0 
0 0 0 0 0 0 0 0 0 
0 0 0 0 0 0 0 0 0 
0 0 0 0 0 0 0 0 0 
0 0 0 0 0 0 0 0 0 
0 0 0 0 0 0 0 0 0 
0 0 0 0 0 0 0 0 0 
0 0 0 0 0 0 0 0 0 
0 0 0 0 0 0 0 0 0 
0 0 0 0 0 0 0 0 0 
0 0 0 0 0 0 0 0 0 
0 0 0 0 0 0 0 0 0 
0 0 0 0 0 0 0 0 0 
0 0 0 0 0 0 0 0 0 
0 0 0 0 0 0 0 0 0 
0 0 0 0 0 0 0 0 0 
0 0 0 0 0 0 0 0 0 
0 0 0 0 0 0 0 0 0 
0 0 0 0 0 0 0 0 0 
0 0 0 0 0 0 0 0 0 
0 0 0 0 0 0 0 0 0 
0 0 0 0 0 0 0 0 0 
0 0 0 0 0 0 0 0 0 
0 0 0 0 0 0 0 0 0 
0 0 0 0 0 0 0 0 0 
0 0 0 0 0 0 0 0 0 
0 0 0 0 0 0 0 0 0 
0 0 0 0 0 0 0 0 0 
0 0 0 0 0 0 0 0 0 
0 0 0 0 0 0 0 0 0 
0 0 0 0 0 0 0 0 0 
0 0 0 0 0 0 0 0 0 
0 0 0 0 0 0 0 0 0 
0 0 0 0 0 0 0 0 0 
0 0 0 0 0 0 0 0 0 
0 0 0 0 0 0 0 0 0 
0 0 0 0 0 0 0 0 0 
0 0 0 0 0 0 0 0 0 
0 0 0 0 0 0 0 0 0 
0 0 0 0 0 0 0 0 0 
0 0 0 0 0 0 0 0 0 
0 0 0 0 0 0 0 0 0 
0 0 0 0 0 0 0 0 0 
0 0 0 0 0 0 0 0 0 
0 0 0 0 0 0 0 0 0 
0 0 0 0 0 0 0 0 0 
0 0 0 0 0 0 0 0 0 
0 0 0 0 0 0 0 0 0 
0 0 0 0 0 0 0 0 0 
0 0 0 0 0 0 0 0 0 
0 0 0 0 0 0 0 0 0 
0 0 0 0 0 0 0 0 0 
0 0 0 0 0 0 0 0 0 
0 0 0 0 0 0 0 0 0 
0 0 0 0 0 0 0 0 0 
0 0 0 0 0 0 0 0 0 
0 0 0 0 0 0 0 0 0 
0 0 0 0 0 0 0 0 0 
0 0 0 0 0 0 0 0 0 
0 0 0 0 0 0 0 0 0 
0 0 0 0 0 0 0 0 0 
0 0 0 0 0 0 0 0 0 
0 0 0 0 0 0 0 0 0 
0 0 0 0 0 0 0 0 0 
0 0 0 0 0 0 0 0 0 
0 0 0 0 0 0 0 0 0 
0 0 0 0 0 0 0 0 0 
0 0 0 0 0 0 0 0 0 
0 0 0 0 0 0 0 0 0 
0 0 0 0 0 0 0 0 0 
0 0 0 0 0 0 0 0 0 
0 0 0 0 0 0 0 0 0 
0 0 0 0 0 0 0 0 0 
0 0 0 0 0 0 0 0 0 
0 0 0 0 0 0 0 0 0 
0 0 0 0 0 0 0 0 0 
0 0 0 0 0 0 0 0 0 
0 0 0 0 0 0 0 0 0 
0 0 0 0 0 0 0 0 0 
0 0 0 0 0 0 0 0 0 
0 0 0 0 0 0 0 0 0 
0 0 0 0 0 0 0 0 0 
0 0 0 0 0 0 0 0 0 
0 0 0 0 0 0 0 0 0 
0 0 0 0 0 0 0 0 0 
0 0 0 0 0 0 0 0 0 
0 0 0 0 0 0 0 0 0 
0 0 0 0 0 0 0 0 0 
0 0 0 0 0 0 0 0 0 
0 0 0 0 0 0 0 0 0 
0 0 0 0 0 0 0 0 0 
0 0 0 0 0 0 0 0 0 
0 0 0 0 0 0 0 0 0 
0 0 0 0 0 0 0 0 0 
0 0 0 0 0 0 0 0 0 
0 0 0 0 0 0 0 0 0 
0 0 0 0 0 0 0 0 0 
0 0 0 0 0 0 0 0 0 
0 0 0 0 0 0 0 0 0 
0 0 0 0 0 0 0 0 0 
0 0 0 0 0 0 0 0 0 
0 0 0 0 0 0 0 0 0 
0 0 0 0 0 0 0 0 0 
0 0 0 0 0 0 0 0 0 
0 0 0 0 0 0 0 0 0 
0 0 0 0 0 0 0 0 0 
0 0 0 0 0 0 0 0 0 
0 0 0 0 0 0 0 0 0 
0 0 0 0 0 0 0 0 0 
0 0 0 0 0 0 0 0 0 
0 0 0 0 0 0 0 0 0 
0 0 0 0 0 0 0 0 0 
0 0 0 0 0 0 0 0 0 
0 0 0 0 0 0 0 0 0 
0 0 0 0 0 0 0 0 0 
0 0 0 0 0 0 0 0 0 
0 0 0 0 0 0 0 0 0 
0 0 0 0 0 0 0 0 0 
0 0 0 0 0 0 0 0 0 
0 0 0 0 0 0 0 0 0 
0 0 0 0 0 0 0 0 0 
0 0 0 0 0 0 0 0 0 
0 0 0 0 0 0 0 0 0 
0 0 0 0 0 0 0 0 0 
0 0 0 0 0 0 0 0 0 
0 0 0 0 0 0 0 0 0 
0 0 0 0 0 0 0 0 0 
0 0 0 0 0 0 0 0 0 
0 0 0 0 0 0 0 0 0 
0 0 0 0 0 0 0 0 0 
0 0 0 0 0 0 0 0 0 
0 0 0 0 0 0 0 0 0 
0 0 0 0 0 0 0 0 0 
0 0 0 0 0 0 0 0 0 
0 0 0 0 0 0 0 0 0 
0 0 0 0 0 0 0 0 0 
0 0 0 0 0 0 0 0 0 
0 0 0 0 0 0 0 0 0 
0 0 0 0 0 0 0 0 0 
0 0 0 0 0 0 0 0 0 
0 0 0 0 0 0 0 0 0 
0 0 0 0 0 0 0 0 0 
0 0 0 0 0 0 0 0 0 
0 0 0 0 0 0 0 0 0 
0 0 0 0 0 0 0 0 0 
0 0 0 0 0 0 0 0 0 
0 0 0 0 0 0 0 0 0 
0 0 0 0 0 0 0 0 0 
0 0 0 0 0 0 0 0 0 
0 0 0 0 0 0 0 0 0 
0 0 0 0 0 0 0 0 0 
0 0 0 0 0 0 0 0 0 
0 0 0 0 0 0 0 0 0 
0 0 0 0 0 0 0 0 0 
0 0 0 0 0 0 0 0 0 
0 0 0 0 0 0 0 0 0 
0 0 0 0 0 0 0 0 0 
0 0 0 0 0 0 0 0 0 
0 0 0 0 0 0 0 0 0 
0 0 0 0 0 0 0 0 0 
0 0 0 0 0 0 0 0 0 
0 0 0 0 0 0 0 0 0 
0 0 0 0 0 0 0 0 0 
0 0 0 0 0 0 0 0 0 
0 0 0 0 0 0 0 0 0 
0 0 0 0 0 0 0 0 0 
0 0 0 0 0 0 0 0 0 
0 0 0 0 0 0 0 0 0 
0 0 0 0 0 0 0 0 0 
0 0 0 0 0 0 0 0 0 
0 0 0 0 0 0 0 0 0 
0 0 0 0 0 0 0 0 0 
0 0 0 0 0 0 0 0 0 
0 0 0 0 0 0 0 0 0 
0 0 0 0 0 0 0 0 0 
0 0 0 0 0 0 0 0 0 
0 0 0 0 0 0 0 0 0 
0 0 0 0 0 0 0 0 0 
0 0 0 0 0 0 0 0 0 
0 0 0 0 0 0 0 0 0 
0 0 0 0 0 0 0 0 0 
0 0 0 0 0 0 0 0 0 
0 0 0 0 0 0 0 0 0 
0 0 0 0 0 0 0 0 0 
0 0 0 0 0 0 0 0 0 
0 0 0 0 0 0 0 0 0 
0 0 0 0 0 0 0 0 0 
0 0 0 0 0 0 0 0 0 
0 0 0 0 0 0 0 0 0 
0 0 0 0 0 0 0 0 0 
0 0 0 0 0 0 0 0 0 
0 0 0 0 0 0 0 0 0 
0 0 0 0 0 0 0 0 0 
0 0 0 0 0 0 0 0 0 
0 0 0 0 0 0 0 0 0 
0 0 0 0 0 0 0 0 0 
0 0 0 0 0 0 0 0 0 
0 0 0 0 0 0 0 0 0 
0 0 0 0 0 0 0 0 0 
0 0 0 0 0 0 0 0 0 
0 0 0 0 0 0 0 0 0 
0 0 0 0 0 0 0 0 0 
0 0 0 0 0 0 0 0 0 
0 0 0 0 0 0 0 0 0 
0 0 0 0 0 0 0 0 0 
0 0 0 0 0 0 0 0 0 
0 0 0 0 0 0 0 0 0 
0 0 0 0 0 0 0 0 0 
0 0 0 0 0 0 0 0 0 
0 0 0 0 0 0 0 0 0 
0 0 0 0 0 0 0 0 0 
0 0 0 0 0 0 0 0 0 
0 0 0 0 0 0 0 0 0 
0 0 0 0 0 0 0 0 0 
0 0 0 0 0 0 0 0 0 
0 0 0 0 0 0 0 0 0 
0 0 0 0 0 0 0 0 0 
0 0 0 0 0 0 0 0 0 
0 0 0 0 0 0 0 0 0 
0 0 0 0 0 0 0 0 0 
0 0 0 0 0 0 0 0 0 
0 0 0 0 0 0 0 0 0 
0 0 0 0 0 0 0 0 0 
0 0 0 0 0 0 0 0 0 
0 0 0 0 0 0 0 0 0 
0 0 0 0 0 0 0 0 0 
0 0 0 0 0 0 0 0 0 
0 0 0 0 0 0 0 0 0 
0 0 0 0 0 0 0 0 0 
0 0 0 0 0 0 0 0 0 
0 0 0 0 0 0 0 0 0 
0 0 0 0 0 0 0 0 0 
0 0 0 0 0 0 0 0 0 
0 0 0 0 0 0 0 0 0 
0 0 0 0 0 0 0 0 0 
0 0 0 0 0 0 0 0 0 
0 0 0 0 0 0 0 0 0 
0 0 0 0 0 0 0 0 0 
0 0 0 0 0 0 0 0 0 
0 0 0 0 0 0 0 0 0 
0 0 0 0 0 0 0 0 0 
0 0 0 0 0 0 0 0 0 
0 0 0 0 0 0 0 0 0 
0 0 0 0 0 0 0 0 0 
0 0 0 0 0 0 0 0 0 
0 0 0 0 0 0 0 0 0 
0 0 0 0 0 0 0 0 0 
0 0 0 0 0 0 0 0 0 
0 0 0 0 0 0 0 0 0 
0 0 0 0 0 0 0 0 0 
0 0 0 0 0 0 0 0 0 
0 0 0 0 0 0 0 0 0 
0 0 0 0 0 0 0 0 0 
0 0 0 0 0 0 0 0 0 
0 0 0 0 0 0 0 0 0 
0 0 0 0 0 0 0 0 0 
0 0 0 0 0 0 0 0 0 
0 0 0 0 0 0 0 0 0 
0 0 0 0 0 0 0 0 0 
0 0 0 0 0 0 0 0 0 
0 0 0 0 0 0 0 0 0 
0 0 0 0 0 0 0 0 0 
0 0 0 0 0 0 0 0 0 
0 0 0 0 0 0 0 0 0 
0 0 0 0 0 0 0 0 0 
0 0 0 0 0 0 0 0 0 
0 0 0 0 0 0 0 0 0 
0 0 0 0 0 0 0 0 0 
0 0 0 0 0 0 0 0 0 
0 0 0 0 0 0 0 0 0 
0 0 0 0 0 0 0 0 0 
0 0 0 0 0 0 0 0 0 
0 0 0 0 0 0 0 0 0 
0 0 0 0 0 0 0 0 0 
0 0 0 0 0 0 0 0 0 
0 0 0 0 0 0 0 0 0 
0 0 0 0 0 0 0 0 0 
0 0 0 0 0 0 0 0 0 
0 0 0 0 0 0 0 0 0 
0 0 0 0 0 0 0 0 0 
0 0 0 0 0 0 0 0 0 
0 0 0 0 0 0 0 0 0 
0 0 0 0 0 0 0 0 0 
0 0 0 0 0 0 0 0 0 
0 0 0 0 0 0 0 0 0 
0 0 0 0 0 0 0 0 0 
0 0 0 0 0 0 0 0 0 
0 0 0 0 0 0 0 0 0 
0 0 0 0 0 0 0 0 0 
0 0 0 0 0 0 0 0 0 
0 0 0 0 0 0 0 0 0 
0 0 0 0 0 0 0 0 0 
0 0 0 0 0 0 0 0 0 
0 0 0 0 0 0 0 0 0 
0 0 0 0 0 0 0 0 0 
0 0 0 0 0 0 0 0 0 
0 0 0 0 0 0 0 0 0 
0 0 0 0 0 0 0 0 0 
0 0 0 0 0 0 0 0 0 
0 0 0 0 0 0 0 0 0 
0 0 0 0 0 0 0 0 0 
0 0 0 0 0 0 0 0 0 
0 0 0 0 0 0 0 0 0 
0 0 0 0 0 0 0 0 0 
0 0 0 0 0 0 0 0 0 
0 0 0 0 0 0 0 0 0 
0 0 0 0 0 0 0 0 0 
0 0 0 0 0 0 0 0 0 
0 0 0 0 0 0 0 0 0 
0 0 0 0 0 0 0 0 0 
0 0 0 0 0 0 0 0 0 
0 0 0 0 0 0 0 0 0 
0 0 0 0 0 0 0 0 0 
0 0 0 0 0 0 0 0 0 
0 0 0 0 0 0 0 0 0 
0 0 0 0 0 0 0 0 0 
0 0 0 0 0 0 0 0 0 
0 0 0 0 0 0 0 0 0 
0 0 0 0 0 0 0 0 0 
0 0 0 0 0 0 0 0 0 
0 0 0 0 0 0 0 0 0 
0 0 0 0 0 0 0 0 0 
0 0 0 0 0 0 0 0 0 
0 0 0 0 0 0 0 0 0 
0 0 0 0 0 0 0 0 0 
0 0 0 0 0 0 0 0 0 
0 0 0 0 0 0 0 0 0 
0 0 0 0 0 0 0 0 0 
0 0 0 0 0 0 0 0 0 
0 0 0 0 0 0 0 0 0 
0 0 0 0 0 0 0 0 0 
0 0 0 0 0 0 0 0 0 
0 0 0 0 0 0 0 0 0 
0 0 0 0 0 0 0 0 0 
0 0 0 0 0 0 0 0 0 
0 0 0 0 0 0 0 0 0 
0 0 0 0 0 0 0 0 0 
0 0 0 0 0 0 0 0 0 
0 0 0 0 0 0 0 0 0 
0 0 0 0 0 0 0 0 0 
0 0 0 0 0 0 0 0 0 
0 0 0 0 0 0 0 0 0 
0 0 0 0 0 0 0 0 0 
0 0 0 0 0 0 0 0 0 
0 0 0 0 0 0 0 0 0 
0 0 0 0 0 0 0 0 0 
0 0 0 0 0 0 0 0 0 
0 0 0 0 0 0 0 0 0 
0 0 0 0 0 0 0 0 0 
0 0 0 0 0 0 0 0 0 
0 0 0 0 0 0 0 0 0 
0 0 0 0 0 0 0 0 0 
0 0 0 0 0 0 0 0 0 
0 0 0 0 0 0 0 0 0 
0 0 0 0 0 0 0 0 0 
0 0 0 0 0 0 0 0 0 
0 0 0 0 0 0 0 0 0 
0 0 0 0 0 0 0 0 0 
0 0 0 0 0 0 0 0 0 
0 0 0 0 0 0 0 0 0 
0 0 0 0 0 0 0 0 0 
0 0 0 0 0 0 0 0 0 
0 0 0 0 0 0 0 0 0 
0 0 0 0 0 0 0 0 0 
0 0 0 0 0 0 0 0 0 
0 0 0 0 0 0 0 0 0 
0 0 0 0 0 0 0 0 0 
0 0 0 0 0 0 0 0 0 
0 0 0 0 0 0 0 0 0 
0 0 0 0 0 0 0 0 0 
0 0 0 0 0 0 0 0 0 
0 0 0 0 0 0 0 0 0 
0 0 0 0 0 0 
v 3 1205 double
0.0080156891962 -0.0015029605931 0.004447886628 0.010048934566 -0.00070430313784 0.0034683114765 -0.15472652587 0.054371164332 0.017807489663 
0.0015701205898 -4.843480566e-05 -0.032346434743 -0.0056303209371 0.0085283445581 0.016039859049 -0.029080006669 0.04353332093 0.035337047209 
-0.084222972431 0.081829535961 -0.0015657430505 -0.015970077835 0.15166809512 0.0078683031147 0.0084999301845 0.1323890659 0.0081926522313 
0.053223610559 0.075188324127 0.0077208849171 -0.027173646627 0.011902077028 0.021408443641 -0.01040054753 0.0058004044742 0.04555054737 
0.0086390268809 0.038845535794 -0.0015567670795 0.019798951085 0.040401127349 0.0076420378047 -0.078830096885 0.05744859893 0.00019912973901 
0.00042695319134 0.13846042764 0.029105660503 -0.097613623005 0.14261836488 -0.069878233524 -0.015444081516 0.16804910789 -0.083079636091 
0.056732275107 -0.039185307936 -0.0066811744503 -0.073359751146 0.048740936439 0.033533506534 0.00030317957686 0.049567823366 -0.018354212932 
-0.017899220674 0.018956035487 -0.014433201323 0.060759685238 0.03755201171 -0.010385692456 0.029483446629 0.02126726561 0.019328405917 
0.012718550083 0.067616469755 0.01425317236 0.096087284017 0.12261288527 -0.004294039915 -0.040629181533 0.011950981917 0.025322700445 
-0.055110835015 0.016838623604 0.044337729087 0.017418324533 0.057616216922 -0.030352324845 -0.024108631974 0.052866387327 -0.0092589620461 
-0.067244853967 0.04522047833 -0.011281584556 -0.005644904192 0.11634111591 0.004857108426 -0.1632132347 0.016458060305 -0.098071338305 
-0.023837693753 0.013424326694 0.030482934101 -0.046543241901 0.073906791384 0.057776194531 -0.0032792434209 0.15987574977 -0.11366743156 
-0.013011560337 0.21057775716 -0.067361238852 -0.12700203971 0.048571700113 0.064957662293 -0.031250205073 0.21919385107 0.082559184695 
-0.02568388976 0.17898130461 0.043235618101 0.039880780314 0.026113743392 0.024039611571 -0.1093329276 0.013073293453 -0.054392005946 
-0.084078667498 0.04976864582 -0.029746205785 -0.043962486341 0.0078226513206 0.0099943416888 0.047803103404 -0.019324961862 -0.018901646946 
0.010421709988 0.032597662155 0.089304931032 0.048145546629 0.065638895238 -0.073652038648 0.035121297983 0.12847363527 0.096812815135 
0.023475480505 0.23269993324 -0.13228825416 0.095677381331 0.0044200649861 -0.086041273012 8.7304082862e-05 0.05658216547 0.0490846904 
0.042602169189 0.089323789222 -0.065956124659 -0.011140416409 0.097767829241 -0.12921837017 -0.027540700241 0.18757467468 0.027540659633 
-0.10514529648 0.01736526256 0.032910920883 -0.016476201133 0.099454444818 -0.084306564822 0.088817694295 0.1124998154 -0.053149249242 
0.015727314557 0.021455075493 -0.0024677751594 -0.023683525094 0.038479039595 0.077669425022 0.037081951989 0.026421480088 0.065176466878 
0.13807051185 0.069486719041 0.062807710466 0.092836600924 0.11632370629 -0.033720182364 -0.12138748745 0.023556564993 -0.062933400745 
0.12805066387 0.097112908791 0.070525714734 0.028538407798 0.025056636625 -0.064268107381 -0.041178332009 0.14957725344 0.14796284926 
-0.15104217532 0.21350433729 -0.08847513098 0.065426130544 0.13385490915 0.035482408426 -0.033229108723 0.13146619811 -0.072439225811 
-0.034575399922 0.014476296317 -0.0031718926662 0.032153006952 0.017443458787 0.013840565836 0.031590655792 0.043572963739 -0.02529784089 
0.066069911894 0.030486271706 0.011613924384 0.0094198569489 0.15103026516 -0.022541178981 -0.044097505797 -0.017331996616 -0.013690871854 