# vtk DataFile Version 5.1
Generated by LIGGGHTS
ASCII
DATASET POLYDATA
POINTS 1296 float
-0.135447 0.05575 -0.143173 -0.138358 0.0693829 -0.142816 -0.115347 0.0922909 -0.143209 
-0.140601 0.148039 -0.144211 -0.143156 0.0610807 -0.139604 -0.0200825 0.0823386 -0.136159 
-0.0198936 0.118296 -0.138175 -0.105178 0.145182 -0.140534 -0.0707559 0.148207 -0.14027 
-0.119903 0.0599428 -0.134609 -0.0827297 0.0620958 -0.131799 -0.00265101 0.0649972 -0.129392 
-0.131105 0.0783498 -0.133554 -0.00846699 0.0843189 -0.13114 -0.100446 0.100299 -0.13227 
-0.140884 0.158958 -0.13348 -0.00181109 0.157238 -0.135442 -0.135321 0.0595709 -0.127262 
-0.119748 0.056816 -0.120411 -0.0379564 0.0812547 -0.126888 -0.0268531 0.103983 -0.123306 
-0.0230391 0.146278 -0.125285 -0.1298 0.0604569 -0.118427 -0.139352 0.0772652 -0.11713 
-0.0399412 0.0870016 -0.112752 -0.143711 0.0927021 -0.112856 -0.0326263 0.0994064 -0.114923 
-0.0587765 0.129277 -0.119037 -0.143848 0.0603599 -0.109504 -0.100632 0.0632593 -0.105997 
-0.0707471 0.0704451 -0.106808 -0.0567418 0.0895533 -0.108633 -0.132013 0.0996184 -0.111474 
-0.085424 0.145491 -0.112529 -0.0733617 0.14136 -0.109577 -0.0595392 0.161421 -0.108829 
-0.0293302 0.0628187 -0.0963703 -0.141699 0.0730094 -0.0937284 -0.0289113 0.114189 -0.0943871 
-0.14187 0.063162 -0.083155 -0.120518 0.1966 -0.0834322 -0.039496 0.0595243 -0.077694 
-0.0539737 0.0860258 -0.0823154 -0.106042 0.0952023 -0.0788519 -0.0274395 0.145469 -0.0773005 
-0.0736315 0.174014 -0.0805016 -0.016683 0.0584988 -0.0715594 -0.00263342 0.05506 -0.0678314 
-0.110272 0.073267 -0.0746442 -0.131152 0.122207 -0.0695034 -0.00351768 0.0828793 -0.0637168 
-0.0426498 0.106092 -0.0630956 -0.0973472 0.126137 -0.0611309 -0.0350889 0.142472 -0.0648016 
-0.0736721 0.0635071 -0.0586413 -0.0691538 0.0622158 -0.0450983 -0.0280691 0.0706189 -0.0380513 
-0.123411 0.0786145 -0.0387885 -0.0148472 0.0816716 -0.0423482 -0.13265 0.112603 -0.042163 
-0.0290712 0.143557 -0.0356955 -0.0606725 0.0825163 -0.0230319 -0.0266128 0.100247 -0.0270844 
-0.0278766 0.156081 -0.0258534 -0.124643 0.0570933 -0.0159208 -0.103404 0.0615817 -0.0209422 
-0.00949128 0.0884972 -0.0196426 -0.131592 0.162233 -0.0191075 -0.0559745 0.159728 -0.0175869 
-0.135123 0.0574113 -0.0147636 -0.0363325 0.0661932 -0.0113814 -0.105407 0.0859051 -0.0102716 
-0.132923 0.0673592 -0.00420504 -0.0902199 0.062172 -0.00567239 -0.0383514 0.0734864 -0.000307991 
-0.131621 0.0850927 -0.00711475 -0.019493 0.0553148 0.00460625 -0.138732 0.0633114 0.00325725 
-0.0738124 0.108682 0.00211232 -0.0295022 0.0555879 0.00837006 -0.0166209 0.0693562 0.0135468 
-0.011079 0.0840199 0.0135661 -0.114855 0.0884153 0.0111352 -0.114331 0.0670733 0.0182533 
-0.14444 0.073428 0.0185896 -0.122882 0.0782773 0.0161309 -0.0121694 0.0970996 0.0172507 
-0.042834 0.103098 0.0171455 -0.111058 0.0558373 0.0257818 -0.132232 0.0692692 0.0250399 
-0.131337 0.0957749 0.0246625 -0.104944 0.0947538 0.0301941 -0.104478 0.166119 0.0293971 
-0.120657 0.0870784 0.0343787 -0.0191161 0.0813281 0.0438256 -0.141606 0.08156 0.0455896 
-0.0506477 0.0774955 0.0494009 -0.00977759 0.0843377 0.0479697 -0.0935009 0.0899613 0.0470257 
-0.120546 0.113199 0.0505236 -0.00626614 0.131204 0.0506691 -0.142288 0.152823 0.0506235 
-0.0299562 0.0615527 0.0581759 -0.0771918 0.0754973 0.0527642 -0.0741298 0.140736 0.0585156 
-0.0941942 0.147982 0.0557493 -0.0521517 0.0549829 0.0602671 -0.106721 0.150618 0.067724 
-0.0561964 0.178244 0.0632211 -0.141734 0.0608736 0.0736641 -0.119002 0.0773143 0.0694377 
-0.133273 0.1403 0.0727252 -0.0788148 0.187558 0.0779641 -0.0167403 0.0644352 0.0861945 
-0.0672072 0.0897265 0.0857223 -0.0812807 0.0592148 0.0908024 -0.112153 0.0679116 0.0956769 
-0.043156 0.0698655 0.0932026 -0.139868 0.0775869 0.0910062 -0.0209327 0.124782 0.0920417 
-0.120077 0.0749806 0.105448 -0.0309548 0.160292 0.0991679 -0.0462906 0.193797 0.0989235 
-0.10792 0.10024 0.109854 -0.0485831 0.0756413 0.117209 -0.000855523 0.0567502 0.124094 
-0.128064 0.116392 0.122159 -0.107047 0.176874 0.124035 -0.0690048 0.1994 0.120407 
-0.127503 0.0612728 0.142135 -0.0885998 0.0732428 0.142439 -0.00196682 0.0998378 0.140173 
-0.115003 0.110161 0.134874 -0.106792 0.123405 0.135972 -0.0876265 0.213487 -0.144673 
-0.0777266 0.212964 -0.144783 -0.088659 0.219272 -0.142969 -0.0768418 0.220387 -0.143963 
-0.0553566 0.234009 -0.147127 -0.0411509 0.234016 -0.147128 -0.0892894 0.25011 -0.144115 
-0.0785319 0.249212 -0.143383 -0.0893449 0.259097 -0.144361 -0.0775963 0.259918 -0.146203 
-0.0553641 0.281326 -0.147447 -0.0411761 0.281332 -0.147447 -0.127199 0.38595 -0.146205 
-0.0973422 0.385985 -0.146205 -0.137974 0.29281 -0.142205 -0.116698 0.29281 -0.142205 
-0.137974 0.368458 -0.142205 -0.116698 0.368458 -0.142205 -0.0553553 0.234279 -0.132921 
-0.0411493 0.234286 -0.132922 -0.0553703 0.28173 -0.133462 -0.0411643 0.281737 -0.133464 
-0.137974 0.29281 -0.120929 -0.116698 0.29281 -0.120929 -0.100306 0.357932 -0.124477 
-0.137974 0.368458 -0.120929 -0.120345 0.361902 -0.127422 -0.0571903 0.230747 -0.114874 
-0.0956519 0.240302 -0.116108 -0.0775687 0.240403 -0.116108 -0.0957988 0.299731 -0.115976 
-0.0777155 0.299833 -0.115976 -0.0496275 0.302813 -0.115026 -0.0257575 0.302813 -0.115026 
-0.115311 0.364755 -0.118197 -0.127199 0.386149 -0.116348 -0.097342 0.386183 -0.116348 
-0.0496275 0.38916 -0.115026 -0.0257575 0.38916 -0.115026 -0.042553 0.229506 -0.113237 
-0.05601 0.279976 -0.113714 -0.0413727 0.278735 -0.112076 -0.118611 0.358102 -0.105564 
-0.100395 0.357861 -0.105563 -0.058843 0.229535 -0.100237 -0.0956518 0.24021 -0.0980248 
-0.0775687 0.240312 -0.0980247 -0.0572345 0.27822 -0.0990405 -0.0951834 0.298114 -0.0980421 
-0.0781678 0.298586 -0.0980514 -0.098295 0.303067 -0.100195 -0.0743554 0.302697 -0.100185 
-0.0378189 0.315565 -0.0989445 -0.0500578 0.329424 -0.103218 -0.0976799 0.383773 -0.100344 
-0.0748076 0.383773 -0.100344 -0.0632128 0.391662 -0.0977047 -0.0388892 0.391662 -0.0977047 
-0.0442057 0.228294 -0.0985994 -0.0430254 0.277523 -0.0974389 -0.0788653 0.28206 -0.0967869 
-0.0596137 0.282605 -0.0968103 -0.053735 0.299816 -0.0909615 -0.0496275 0.302813 -0.0911555 
-0.0257575 0.302813 -0.0911555 -0.0915105 0.333518 -0.0940946 -0.0734114 0.337266 -0.0924976 
-0.0788656 0.351125 -0.0967839 -0.0770862 0.383638 -0.0912255 -0.0496275 0.38916 -0.0911555 
-0.0257575 0.38916 -0.0911555 -0.123564 0.205413 -0.0837783 -0.115518 0.207448 -0.0846009 
-0.1256 0.228898 -0.0864442 -0.117553 0.230933 -0.0872668 -0.0300994 0.224818 -0.0883203 
-0.0174152 0.224833 -0.0883691 -0.0301229 0.265917 -0.0875754 -0.0174386 0.265933 -0.087624 
-0.128432 0.312992 -0.0838101 -0.102567 0.313 -0.0841526 -0.0678898 0.374421 -0.0833092 
-0.127717 0.393684 -0.0831348 -0.103276 0.393672 -0.0834631 -0.12288 0.207498 -0.0757318 
-0.114831 0.20909 -0.0765521 -0.030033 0.224177 -0.0756369 -0.0173488 0.224192 -0.0756856 
-0.124916 0.230983 -0.0783978 -0.116871 0.23346 -0.0792228 -0.0300564 0.265275 -0.0748918 
-0.0173722 0.265291 -0.0749407 -0.094822 0.28184 -0.0826959 -0.0817923 0.282399 -0.0780875 
-0.0720282 0.281499 -0.0817156 -0.0591983 0.282059 -0.0770949 -0.0976799 0.301542 -0.0774718 
-0.0748076 0.301542 -0.0774718 -0.0502081 0.324856 -0.0804634 -0.0275527 0.319035 -0.0802021 
-0.0014877 0.31883 -0.0800342 -0.094822 0.351728 -0.0826959 -0.0749429 0.351728 -0.0826959 
-0.0591985 0.351123 -0.0770919 -0.0976799 0.383773 -0.0774718 -0.0748076 0.383773 -0.0774718 
-0.0266925 0.39096 -0.0788262 -0.00293935 0.391037 -0.0786713 -0.106443 0.20915 -0.0684806 
-0.0981447 0.208626 -0.0679221 -0.0975422 0.233416 -0.0679779 -0.10584 0.233939 -0.0685363 
-0.0769383 0.299988 -0.067622 -0.053667 0.300042 -0.0676901 -0.064374 0.317366 -0.0739033 
-0.0378189 0.315585 -0.0724791 -0.0770182 0.383864 -0.0679542 -0.0537468 0.383919 -0.0680223 
-0.0632138 0.391656 -0.0733813 -0.0388882 0.391656 -0.0733813 -0.107118 0.209206 -0.0601823 
-0.106515 0.233995 -0.060238 -0.094822 0.28184 -0.0628168 -0.0749429 0.28184 -0.0628168 
-0.0947189 0.302531 -0.0631772 -0.0704498 0.302531 -0.0631772 -0.0222406 0.307003 -0.0615182 
-0.066494 0.323419 -0.0630458 -0.0394313 0.323419 -0.0630458 -0.094822 0.351728 -0.0628168 
-0.0749429 0.351728 -0.0628168 -0.0947189 0.390533 -0.0631968 -0.0704498 0.390533 -0.0631968 
-0.0647226 0.387576 -0.0612743 -0.0412027 0.387576 -0.0612743 -0.0248443 0.395587 -0.0669298 
-0.000119374 0.395574 -0.0668025 -0.0988197 0.208683 -0.0596238 -0.0982172 0.233472 -0.0596796 
-0.128089 0.313014 -0.0579446 -0.102224 0.313022 -0.0582873 -0.0277206 0.319187 -0.0541371 
-0.00462434 0.32184 -0.0597399 -0.127393 0.393681 -0.0587058 -0.102956 0.393663 -0.0590152 
-0.0268397 0.390896 -0.0550859 -0.00308665 0.39097 -0.0549183 -0.091491 0.204728 -0.04408 
-0.0836889 0.205201 -0.0436652 -0.0919465 0.227145 -0.0445197 -0.0841442 0.227618 -0.0441049 
-0.0413727 0.261993 -0.0439736 -0.114887 0.288037 -0.0432379 -0.0938105 0.288037 -0.0432379 
-0.139418 0.303845 -0.0426269 -0.115747 0.303845 -0.0426269 -0.0947189 0.302555 -0.0389072 
-0.0704498 0.302555 -0.0389072 -0.0253395 0.309901 -0.0418224 -0.0290516 0.311658 -0.0029784 
-0.0398358 0.323842 -0.0422569 -0.114887 0.362862 -0.0432379 -0.0938105 0.362862 -0.0432379 
-0.139418 0.389363 -0.042626 -0.115747 0.389363 -0.042626 -0.0947189 0.390537 -0.0389287 
-0.0704498 0.390537 -0.0389287 -0.0647226 0.387576 -0.0377545 -0.0412027 0.387576 -0.0377545 
-0.0249684 0.395568 -0.0422046 -0.000244766 0.395558 -0.0420786 -0.0919129 0.205187 -0.0362778 
-0.0841109 0.20566 -0.035863 -0.0923683 0.227604 -0.0367175 -0.084566 0.228077 -0.0363027 
-0.063547 0.284888 -0.0367424 -0.0424705 0.285125 -0.0367016 -0.0282776 0.313869 -0.0347717 
-0.066494 0.323419 -0.035983 -0.0394313 0.323419 -0.035983 -0.063766 0.3598 -0.0367017 
-0.0426897 0.359861 -0.0367425 -0.0117607 0.202486 -0.0285366 -0.0118261 0.221391 -0.0284217 
-0.0414132 0.259853 -0.025295 -0.0588724 0.279778 -0.0298003 -0.0387938 0.279778 -0.0298003 
-0.00530026 0.313428 -0.0247294 -0.0399738 0.32155 -0.0235789 -0.0588724 0.350488 -0.0298003 
[...]
POINT_DATA 1296
FIELD FieldData 8
id 1 1296 int
3781 3801 3749 3970 3894 3730 3789 3994 3744 
3745 2648 3927 2739 3985 3917 3359 3858 3023 
2755 2901 3952 3937 3738 3785 3852 3823 3296 
3981 3024 3931 3966 3685 3908 3180 3932 3808 
3844 3586 3773 3360 3987 3960 3877 3135 3244 
3830 3961 3805 3716 3896 3943 3242 3939 3903 
3731 3918 3714 3727 3757 3920 3879 3938 3814 
2484 3885 3853 3787 3815 3873 3182 3975 3831 
3971 3746 3786 3297 3919 3925 2961 3962 3847 
3782 3906 3720 3688 2902 2482 3954 3836 3982 
3825 3950 3988 3803 3940 3854 3788 3587 3775 
3955 3719 3909 3747 3911 3996 3686 3406 2823 
3765 3760 3631 3910 3761 3871 3968 3768 3863 
2550 3864 3325 3721 2509 3997 3941 3136 3977 
3776 3632 3963 3689 3729 3969 3875 3956 4866 
4870 4867 4871 4794 4798 4868 4872 4869 4865 
4796 4800 4018 4022 4442 4446 4444 4448 4795 
4799 4797 4793 4443 4447 4024 4445 4020 4786 
4690 4694 4692 4696 4226 4230 4441 4019 4023 
4228 4232 4790 4788 4792 4021 4017 4787 4691 
4695 4789 4693 4689 4330 4334 4046 4042 4332 
4336 4044 4048 4791 4785 4602 4606 4286 4227 
4231 4605 4608 4604 4284 4229 4225 4922 4926 
4924 4928 4850 4854 4852 4856 4084 4088 4288 
4086 4090 4923 4927 4851 4855 4925 4921 4853 
4849 4594 4598 4603 4607 4331 4335 4043 4058 
4062 4596 4600 4601 4333 4329 4060 4064 4914 
4918 4920 4916 4283 4287 4282 4047 4285 4281 
4045 4041 4915 4917 4595 4599 4194 4198 4138 
4026 4030 4597 4593 4196 4200 4028 4032 4140 
4144 4919 4913 4085 4089 4059 4063 4087 4091 
4061 4057 4938 4942 4940 4944 4658 4475 4479 
4258 4262 4195 4199 4139 4080 4660 4477 4481 
4260 4264 4197 4193 4029 4025 4141 4137 4939 
4943 4941 4937 4483 4487 4092 4027 4031 4485 
4474 4954 4956 4659 4578 4582 4096 4661 4580 
4584 4094 4074 4955 4957 4476 4480 4259 4263 
4076 4478 4482 4261 4257 4078 4095 4579 4583 
4093 4581 4577 4882 4075 4082 4073 4884 4362 
4366 4077 4364 4368 4079 4083 4883 4885 4346 
4350 4081 4348 4352 4674 4678 4162 4166 4676 
4680 4164 4168 4484 4488 4363 4367 4318 4486 
4473 4365 4361 4012 4962 4966 4964 4968 4634 
4638 4675 4679 4347 4351 4314 4354 4636 4640 
4270 4677 4673 4268 4349 4345 4316 4320 4356 
4008 4152 4963 4967 4965 4961 4498 4146 4150 
4266 4163 4167 4034 4038 4272 4148 4165 4036 
4161 4040 4734 4730 4635 4355 4115 4732 4736 
4119 4637 4035 4004 4269 4002 4117 4121 4068 
4072 4770 4639 4315 4772 4776 4154 4158 4319 
4633 4500 4005 4317 4313 4357 4156 4160 4774 
4731 4735 4499 4234 4210 4214 4238 4733 4147 
4729 4066 4267 4070 4271 4127 4151 4001 4071 
4389 4039 4236 4006 4212 4265 4216 4240 4125 
4149 4114 4037 4033 4530 4534 4387 4391 4159 
4773 4769 4067 4123 4536 4393 4145 4069 4065 
4771 4775 4450 4454 4586 4590 4418 4422 4116 
4155 4120 4124 4452 4456 4532 4128 4501 4420 
4424 4003 4007 4118 4157 4122 4153 4531 4535 
4388 4392 4235 4211 4215 4239 4178 4182 4592 
4533 4529 4394 4237 4296 4213 4209 4233 4126 
4113 4180 4184 4591 4559 4290 4338 4342 4294 
4588 4557 4561 4340 4344 4292 4451 4455 4587 
4555 4506 4510 4395 4399 4419 4423 4453 4449 
4589 4585 4508 4512 4421 4417 4397 4386 4611 
4615 4291 4295 4724 4179 4183 4390 4613 4293 
4289 4181 4177 4619 4826 4830 4814 4623 4738 
4722 4726 4742 4556 4560 4400 4339 4343 4740 
4744 4610 4728 4617 4050 4396 4558 4562 4341 
4337 4052 4874 4878 4810 4621 4880 4828 4832 
4812 4816 4612 4616 4507 4511 4725 4614 4618 
4509 4505 4398 4385 4875 4879 4827 4831 4624 
4876 4739 4723 4727 4825 4743 4741 4737 4721 
4566 4620 4811 4877 4873 4622 4815 4568 4829 
4564 4813 4809 4563 4567 4609 4051 4553 4055 
4565 4554 4053 4538 3899 3849 3161 3440 3818 
3838 3945 3811 3784 3876 3405 3972 3934 3755 
3762 3860 3778 3025 2591 3900 3717 2481 3957 
3978 3964 3922 3856 3741 2927 2989 3806 3711 
3867 3888 3869 2483 3723 3441 3737 3819 3850 
3797 3324 3851 3809 3614 3712 5010 5014 3162 
5011 5015 3766 3890 2751 3691 3665 3914 3208 
3812 2962 3758 2824 3991 3771 3840 3770 2690 
3946 2748 3995 3889 3791 2749 3732 3442 3668 
3764 3828 3870 3779 3718 3777 3263 3742 3385 
3820 3774 3692 3763 3999 3913 3916 3993 3979 
3974 2963 3923 2790 3998 3924 3772 3667 2928 
3947 3750 3857 3613 3739 3790 3715 3810 3892 
3751 3835 3443 3935 3461 3298 3861 3733 3846 
3833 3958 3800 3936 3754 2753 3872 5023 5018 
5019 5022 3902 3926 3798 3725 3930 3326 2868 
3792 3843 3883 3444 3693 3848 4898 4902 4904 
4900 4714 4718 4716 4720 4899 4903 4897 4901 
4994 4998 4996 5000 4834 4838 4715 4836 4840 
4719 4626 4630 4717 4713 4628 4632 4995 4999 
4997 4993 4515 4519 4517 4521 4835 4839 4833 
4837 4402 4406 4404 4408 4972 4976 4974 4978 
4627 4631 4629 4625 4973 4977 4975 4979 4698 
4702 4523 4527 4516 4520 4700 4704 4525 4514 
4518 4522 4403 4407 4405 4401 4980 4984 4982 
4986 4524 4528 4426 4430 4428 4432 4526 4513 
4981 4985 4983 4987 4754 4758 4699 4703 4756 
4760 4701 4697 5012 5016 4762 4766 4755 4759 
4490 4494 4427 4431 4370 4753 4764 4768 4757 
4374 4142 4298 4302 4429 4492 4425 4496 4372 
4376 4300 4304 5013 5009 4890 4894 4892 4896 
4491 4495 4202 4206 4493 4489 4204 4208 4946 
4950 4891 4895 4948 4763 4767 4893 4889 4686 
4682 4550 4546 4458 4462 4688 4299 4684 4552 
4548 4460 4947 4951 4949 4952 4945 4662 4761 
4371 4375 4765 4303 4664 4464 4373 4369 4301 
4297 4988 4992 4990 4970 4666 4670 4547 4459 
4463 4203 4207 4668 4672 4549 4461 4457 4205 
4201 4958 4989 4971 4953 4960 4991 4969 4663 
4683 4687 4642 4646 4551 4685 4657 4681 4648 
4644 4545 4959 4858 4862 4864 4860 4667 4671 
4669 4665 4863 4861 4857 4859 4643 4647 4641 
4645 4143 5002 5006 5004 5008 4886 4888 5003 
5007 4887 5005 5001 4802 4806 4881 4804 4808 
4650 4654 4652 4656 4803 4807 4306 4310 4308 
4312 4010 4014 4746 4750 4805 4801 4378 4382 
4651 4655 4748 4752 4653 4649 4380 4384 4358 
4360 4016 4192 4747 4751 4706 4710 4749 4502 
4745 4540 4307 4311 4186 4708 4712 4309 4305 
4379 4383 4190 4377 4381 4013 4009 4188 4707 
4711 4243 4247 4103 4709 4504 4185 4353 4011 
4245 4249 4015 4101 4105 4503 4705 4097 4542 
4410 4414 4326 4187 4191 4322 4359 4544 4099 
4412 4416 4328 4324 4189 4244 4248 4100 4104 
4497 4246 4250 4102 4106 4906 4910 4908 4912 
4434 4438 4537 4436 4440 4907 4911 4909 4905 
4539 4543 4411 4415 4327 4255 4323 4130 4134 
4541 4413 4409 4321 4325 4253 4242 4132 4136 
4218 4222 4433 4220 4224 5017 5024 5020 5021 
4818 4822 4820 4824 4435 4439 4251 4170 4174 
4437 4172 4176 4842 4846 4844 4848 4466 4470 
4054 4276 4468 4472 4056 4930 4934 4843 4847 
4932 4936 4819 4823 4782 4778 4821 4817 4274 
4278 4570 4574 4784 4219 4223 4252 4256 4131 
4135 4107 4111 4572 4576 4280 4221 4217 4254 
4241 4133 4129 4109 4098 4931 4935 4933 4929 
4845 4841 4780 4171 4175 4277 4173 4169 4779 
4783 4781 4777 4275 4279 4571 4575 4467 4471 
4108 4112 4573 4569 4273 4469 4465 4049 4110 

type 1 1296 int
2 2 2 2 2 2 2 2 2 
2 2 2 2 2 2 2 2 2 
2 2 2 2 2 2 2 2 2 
2 2 2 2 2 2 2 2 2 
2 2 2 2 2 2 2 2 2 
2 2 2 2 2 2 2 2 2 
2 2 2 2 2 2 2 2 2 
2 2 2 2 2 2 2 2 2 
2 2 2 2 2 2 2 2 2 
2 2 2 2 2 2 2 2 2 
2 2 2 2 2 2 2 2 2 
2 2 2 2 2 2 2 2 2 
2 2 2 2 2 2 2 2 2 
2 2 2 2 2 2 2 2 2 
2 2 2 2 2 2 2 2 2 
2 2 2 2 2 2 2 2 2 
2 2 2 2 2 2 2 2 2 
2 2 2 2 2 2 2 2 2 
2 2 2 2 2 2 2 2 2 
2 2 2 2 2 2 2 2 2 
2 2 2 2 2 2 2 2 2 
2 2 2 2 2 2 2 2 2 
2 2 2 2 2 2 2 2 2 
2 2 2 2 2 2 2 2 2 
2 2 2 2 2 2 2 2 2 
2 2 2 2 2 2 2 2 2 
2 2 2 2 2 2 2 2 2 
2 2 2 2 2 2 2 2 2 
2 2 2 2 2 2 2 2 2 
2 2 2 2 2 2 2 2 2 
2 2 2 2 2 2 2 2 2 
2 2 2 2 2 2 2 2 2 
2 2 2 2 2 2 2 2 2 
2 2 2 2 2 2 2 2 2 
2 2 2 2 2 2 2 2 2 
2 2 2 2 2 2 2 2 2 
2 2 2 2 2 2 2 2 2 
2 2 2 2 2 2 2 2 2 
2 2 2 2 2 2 2 2 2 
2 2 2 2 2 2 2 2 2 
2 2 2 2 2 2 2 2 2 
2 2 2 2 2 2 2 2 2 
2 2 2 2 2 2 2 2 2 
2 2 2 2 2 2 2 2 2 
2 2 2 2 2 2 2 2 2 
2 2 2 2 2 2 2 2 2 
2 2 2 2 2 2 2 2 2 
2 2 2 2 2 2 2 2 2 
2 2 2 2 2 2 2 2 2 
2 2 2 2 2 2 2 2 2 
2 2 2 2 2 2 2 2 2 
2 2 2 2 2 2 2 2 2 
2 2 2 2 2 2 2 2 2 
2 2 2 2 2 2 2 2 2 
2 2 2 2 2 2 2 2 2 
2 2 2 2 2 2 2 2 2 
2 2 2 2 2 2 2 2 2 
2 2 2 2 2 2 2 2 2 
2 2 2 2 2 2 2 2 2 
2 2 2 2 2 2 2 2 2 
2 2 2 2 2 2 2 2 2 
2 2 2 2 2 2 2 2 2 
2 2 2 2 2 2 2 2 2 
2 2 2 2 2 2 2 2 2 
2 2 2 2 2 2 2 2 2 
2 2 2 2 2 2 2 2 2 
2 2 2 2 2 2 2 2 2 
2 2 2 2 2 2 2 2 2 
2 2 2 2 2 2 2 2 2 
2 2 2 2 2 2 2 2 2 
2 2 2 2 2 2 2 2 2 
2 2 2 2 2 2 2 2 2 
2 2 2 2 2 2 2 2 2 
2 2 2 2 2 2 2 2 2 
2 2 2 2 2 2 2 2 2 
2 2 2 2 2 2 2 2 2 
2 2 2 2 2 2 2 2 2 
2 2 2 2 2 2 2 2 2 
2 2 2 2 2 2 2 2 2 
2 2 2 2 2 2 2 2 2 
2 2 2 2 2 2 2 2 2 
2 2 2 2 2 2 2 2 2 
2 2 2 2 2 2 2 2 2 
2 2 2 2 2 2 2 2 2 
2 2 2 2 2 2 2 2 2 
2 2 2 2 2 2 2 2 2 
2 2 2 2 2 2 2 2 2 
2 2 2 2 2 2 2 2 2 
2 2 2 2 2 2 2 2 2 
2 2 2 2 2 2 2 2 2 
2 2 2 2 2 2 2 2 2 
2 2 2 2 2 2 2 2 2 
2 2 2 2 2 2 2 2 2 
2 2 2 2 2 2 2 2 2 
2 2 2 2 2 2 2 2 2 
2 2 2 2 2 2 2 2 2 
2 2 2 2 2 2 2 2 2 
2 2 2 2 2 2 2 2 2 
2 2 2 2 2 2 2 2 2 
2 2 2 2 2 2 2 2 2 
2 2 2 2 2 2 2 2 2 
2 2 2 2 2 2 2 2 2 
2 2 2 2 2 2 2 2 2 
2 2 2 2 2 2 2 2 2 
2 2 2 2 2 2 2 2 2 
2 2 2 2 2 2 2 2 2 
2 2 2 2 2 2 2 2 2 
2 2 2 2 2 2 2 2 2 
2 2 2 2 2 2 2 2 2 
2 2 2 2 2 2 2 2 2 
2 2 2 2 2 2 2 2 2 
2 2 2 2 2 2 2 2 2 
2 2 2 2 2 2 2 2 2 
2 2 2 2 2 2 2 2 2 
2 2 2 2 2 2 2 2 2 
2 2 2 2 2 2 2 2 2 
2 2 2 2 2 2 2 2 2 
2 2 2 2 2 2 2 2 2 
2 2 2 2 2 2 2 2 2 
2 2 2 2 2 2 2 2 2 
2 2 2 2 2 2 2 2 2 
2 2 2 2 2 2 2 2 2 
2 2 2 2 2 2 2 2 2 
2 2 2 2 2 2 2 2 2 
2 2 2 2 2 2 2 2 2 
2 2 2 2 2 2 2 2 2 
2 2 2 2 2 2 2 2 2 
2 2 2 2 2 2 2 2 2 
2 2 2 2 2 2 2 2 2 
2 2 2 2 2 2 2 2 2 
2 2 2 2 2 2 2 2 2 
2 2 2 2 2 2 2 2 2 
2 2 2 2 2 2 2 2 2 
2 2 2 2 2 2 2 2 2 
2 2 2 2 2 2 2 2 2 
2 2 2 2 2 2 2 2 2 
2 2 2 2 2 2 2 2 2 
2 2 2 2 2 2 2 2 2 
2 2 2 2 2 2 2 2 2 
2 2 2 2 2 2 2 2 2 
2 2 2 2 2 2 2 2 2 
2 2 2 2 2 2 2 2 2 
2 2 2 2 2 2 2 2 2 
2 2 2 2 2 2 2 2 2 

i 3 1296 int
0 0 0 0 0 0 0 0 0 
0 0 0 0 0 0 0 0 0 
0 0 0 0 0 0 0 0 0 
0 0 0 0 0 0 0 0 0 
0 0 0 0 0 0 0 0 0 
0 0 0 0 0 0 0 0 0 
0 0 0 0 0 0 0 0 0 
0 0 0 0 0 0 0 0 0 
0 0 0 0 0 0 0 0 0 
0 0 0 0 0 0 0 0 0 
0 0 0 0 0 0 0 0 0 
0 0 0 0 0 0 0 0 0 
0 0 0 0 0 0 0 0 0 
0 0 0 0 0 0 0 0 0 
0 0 0 0 0 0 0 0 0 
0 0 0 0 0 0 0 0 0 
0 0 0 0 0 0 0 0 0 
0 0 0 0 0 0 0 0 0 
0 0 0 0 0 0 0 0 0 
0 0 0 0 0 0 0 0 0 
0 0 0 0 0 0 0 0 0 
0 0 0 0 0 0 0 0 0 
0 0 0 0 0 0 0 0 0 
0 0 0 0 0 0 0 0 0 
0 0 0 0 0 0 0 0 0 
0 0 0 0 0 0 0 0 0 
0 0 0 0 0 0 0 0 0 
0 0 0 0 0 0 0 0 0 
0 0 0 0 0 0 0 0 0 
0 0 0 0 0 0 0 0 0 
0 0 0 0 0 0 0 0 0 
0 0 0 0 0 0 0 0 0 
0 0 0 0 0 0 0 0 0 
0 0 0 0 0 0 0 0 0 
0 0 0 0 0 0 0 0 0 
0 0 0 0 0 0 0 0 0 
0 0 0 0 0 0 0 0 0 
0 0 0 0 0 0 0 0 0 
0 0 0 0 0 0 0 0 0 
0 0 0 0 0 0 0 0 0 
0 0 0 0 0 0 0 0 0 
0 0 0 0 0 0 0 0 0 
0 0 0 0 0 0 0 0 0 
0 0 0 0 0 0 0 0 0 
0 0 0 0 0 0 0 0 0 
0 0 0 0 0 0 0 0 0 
0 0 0 0 0 0 0 0 0 
0 0 0 0 0 0 0 0 0 
0 0 0 0 0 0 0 0 0 
0 0 0 0 0 0 0 0 0 
0 0 0 0 0 0 0 0 0 
0 0 0 0 0 0 0 0 0 
0 0 0 0 0 0 0 0 0 
0 0 0 0 0 0 0 0 0 
0 0 0 0 0 0 0 0 0 
0 0 0 0 0 0 0 0 0 
0 0 0 0 0 0 0 0 0 
0 0 0 0 0 0 0 0 0 
0 0 0 0 0 0 0 0 0 
0 0 0 0 0 0 0 0 0 
0 0 0 0 0 0 0 0 0 
0 0 0 0 0 0 0 0 0 
0 0 0 0 0 0 0 0 0 
0 0 0 0 0 0 0 0 0 
0 0 0 0 0 0 0 0 0 
0 0 0 0 0 0 0 0 0 
0 0 0 0 0 0 0 0 0 
0 0 0 0 0 0 0 0 0 
0 0 0 0 0 0 0 0 0 
0 0 0 0 0 0 0 0 0 
0 0 0 0 0 0 0 0 0 
0 0 0 0 0 0 0 0 0 
0 0 0 0 0 0 0 0 0 
0 0 0 0 0 0 0 0 0 
0 0 0 0 0 0 0 0 0 
0 0 0 0 0 0 0 0 0 
0 0 0 0 0 0 0 0 0 
0 0 0 0 0 0 0 0 0 
0 0 0 0 0 0 0 0 0 
0 0 0 0 0 0 0 0 0 
0 0 0 0 0 0 0 0 0 
0 0 0 0 0 0 0 0 0 
0 0 0 0 0 0 0 0 0 
0 0 0 0 0 0 0 0 0 
0 0 0 0 0 0 0 0 0 
0 0 0 0 0 0 0 0 0 
0 0 0 0 0 0 0 0 0 
0 0 0 0 0 0 0 0 0 
0 0 0 0 0 0 0 0 0 
0 0 0 0 0 0 0 0 0 
0 0 0 0 0 0 0 0 0 
0 0 0 0 0 0 0 0 0 
0 0 0 0 0 0 0 0 0 
0 0 0 0 0 0 0 0 0 
0 0 0 0 0 0 0 0 0 
0 0 0 0 0 0 0 0 0 
0 0 0 0 0 0 0 0 0 
0 0 0 0 0 0 0 0 0 
0 0 0 0 0 0 0 0 0 
0 0 0 0 0 0 0 0 0 
0 0 0 0 0 0 0 0 0 
0 0 0 0 0 0 0 0 0 
0 0 0 0 0 0 0 0 0 
0 0 0 0 0 0 0 0 0 
0 0 0 0 0 0 0 0 0 
0 0 0 0 0 0 0 0 0 
0 0 0 0 0 0 0 0 0 
0 0 0 0 0 0 0 0 0 
0 0 0 0 0 0 0 0 0 
0 0 0 0 0 0 0 0 0 
0 0 0 0 0 0 0 0 0 
0 0 0 0 0 0 0 0 0 
0 0 0 0 0 0 0 0 0 
0 0 0 0 0 0 0 0 0 
0 0 0 0 0 0 0 0 0 
0 0 0 0 0 0 0 0 0 
0 0 0 0 0 0 0 0 0 
0 0 0 0 0 0 0 0 0 
0 0 0 0 0 0 0 0 0 
0 0 0 0 0 0 0 0 0 
0 0 0 0 0 0 0 0 0 
0 0 0 0 0 0 0 0 0 
0 0 0 0 0 0 0 0 0 
0 0 0 0 0 0 0 0 0 
0 0 0 0 0 0 0 0 0 
0 0 0 0 0 0 0 0 0 
0 0 0 0 0 0 0 0 0 
0 0 0 0 0 0 0 0 0 
0 0 0 0 0 0 0 0 0 
0 0 0 0 0 0 0 0 0 
0 0 0 0 0 0 0 0 0 
0 0 0 0 0 0 0 0 0 
0 0 0 0 0 0 0 0 0 
0 0 0 0 0 0 0 0 0 
0 0 0 0 0 0 0 0 0 
0 0 0 0 0 0 0 0 0 
0 0 0 0 0 0 0 0 0 
0 0 0 0 0 0 0 0 0 
0 0 0 0 0 0 0 0 0 
0 0 0 0 0 0 0 0 0 
0 0 0 0 0 0 0 0 0 
0 0 0 0 0 0 0 0 0 
0 0 0 0 0 0 0 0 0 
0 0 0 0 0 0 0 0 0 
0 0 0 0 0 0 0 0 0 
0 0 0 0 0 0 0 0 0 
0 0 0 0 0 0 0 0 0 
0 0 0 0 0 0 0 0 0 
0 0 0 0 0 0 0 0 0 
0 0 0 0 0 0 0 0 0 
0 0 0 0 0 0 0 0 0 
0 0 0 0 0 0 0 0 0 
0 0 0 0 0 0 0 0 0 
0 0 0 0 0 0 0 0 0 
0 0 0 0 0 0 0 0 0 
0 0 0 0 0 0 0 0 0 
0 0 0 0 0 0 0 0 0 
0 0 0 0 0 0 0 0 0 
0 0 0 0 0 0 0 0 0 
0 0 0 0 0 0 0 0 0 
0 0 0 0 0 0 0 0 0 
0 0 0 0 0 0 0 0 0 
0 0 0 0 0 0 0 0 0 
0 0 0 0 0 0 0 0 0 
0 0 0 0 0 0 0 0 0 
0 0 0 0 0 0 0 0 0 
0 0 0 0 0 0 0 0 0 
0 0 0 0 0 0 0 0 0 
0 0 0 0 0 0 0 0 0 
0 0 0 0 0 0 0 0 0 
0 0 0 0 0 0 0 0 0 
0 0 0 0 0 0 0 0 0 
0 0 0 0 0 0 0 0 0 
0 0 0 0 0 0 0 0 0 
0 0 0 0 0 0 0 0 0 
0 0 0 0 0 0 0 0 0 
0 0 0 0 0 0 0 0 0 
0 0 0 0 0 0 0 0 0 
0 0 0 0 0 0 0 0 0 
0 0 0 0 0 0 0 0 0 
0 0 0 0 0 0 0 0 0 
0 0 0 0 0 0 0 0 0 
0 0 0 0 0 0 0 0 0 
0 0 0 0 0 0 0 0 0 
0 0 0 0 0 0 0 0 0 
0 0 0 0 0 0 0 0 0 
0 0 0 0 0 0 0 0 0 
0 0 0 0 0 0 0 0 0 
0 0 0 0 0 0 0 0 0 
0 0 0 0 0 0 0 0 0 
0 0 0 0 0 0 0 0 0 
0 0 0 0 0 0 0 0 0 
0 0 0 0 0 0 0 0 0 
0 0 0 0 0 0 0 0 0 
0 0 0 0 0 0 0 0 0 
0 0 0 0 0 0 0 0 0 
0 0 0 0 0 0 0 0 0 
0 0 0 0 0 0 0 0 0 
0 0 0 0 0 0 0 0 0 
0 0 0 0 0 0 0 0 0 
0 0 0 0 0 0 0 0 0 
0 0 0 0 0 0 0 0 0 
0 0 0 0 0 0 0 0 0 
0 0 0 0 0 0 0 0 0 
0 0 0 0 0 0 0 0 0 
0 0 0 0 0 0 0 0 0 
0 0 0 0 0 0 0 0 0 
0 0 0 0 0 0 0 0 0 
0 0 0 0 0 0 0 0 0 
0 0 0 0 0 0 0 0 0 
0 0 0 0 0 0 0 0 0 
0 0 0 0 0 0 0 0 0 
0 0 0 0 0 0 0 0 0 
0 0 0 0 0 0 0 0 0 
0 0 0 0 0 0 0 0 0 
0 0 0 0 0 0 0 0 0 
0 0 0 0 0 0 0 0 0 
0 0 0 0 0 0 0 0 0 
0 0 0 0 0 0 0 0 0 
0 0 0 0 0 0 0 0 0 
0 0 0 0 0 0 0 0 0 
0 0 0 0 0 0 0 0 0 
0 0 0 0 0 0 0 0 0 
0 0 0 0 0 0 0 0 0 
0 0 0 0 0 0 0 0 0 
0 0 0 0 0 0 0 0 0 
0 0 0 0 0 0 0 0 0 
0 0 0 0 0 0 0 0 0 
0 0 0 0 0 0 0 0 0 
0 0 0 0 0 0 0 0 0 
0 0 0 0 0 0 0 0 0 
0 0 0 0 0 0 0 0 0 
0 0 0 0 0 0 0 0 0 
0 0 0 0 0 0 0 0 0 
0 0 0 0 0 0 0 0 0 
0 0 0 0 0 0 0 0 0 
0 0 0 0 0 0 0 0 0 
0 0 0 0 0 0 0 0 0 
0 0 0 0 0 0 0 0 0 
0 0 0 0 0 0 0 0 0 
0 0 0 0 0 0 0 0 0 
0 0 0 0 0 0 0 0 0 
0 0 0 0 0 0 0 0 0 
0 0 0 0 0 0 0 0 0 
0 0 0 0 0 0 0 0 0 
0 0 0 0 0 0 0 0 0 
0 0 0 0 0 0 0 0 0 
0 0 0 0 0 0 0 0 0 
0 0 0 0 0 0 0 0 0 
0 0 0 0 0 0 0 0 0 
0 0 0 0 0 0 0 0 0 
0 0 0 0 0 0 0 0 0 
0 0 0 0 0 0 0 0 0 
0 0 0 0 0 0 0 0 0 
0 0 0 0 0 0 0 0 0 
0 0 0 0 0 0 0 0 0 
0 0 0 0 0 0 0 0 0 
0 0 0 0 0 0 0 0 0 
0 0 0 0 0 0 0 0 0 
0 0 0 0 0 0 0 0 0 
0 0 0 0 0 0 0 0 0 
0 0 0 0 0 0 0 0 0 
0 0 0 0 0 0 0 0 0 
0 0 0 0 0 0 0 0 0 
0 0 0 0 0 0 0 0 0 
0 0 0 0 0 0 0 0 0 
0 0 0 0 0 0 0 0 0 
0 0 0 0 0 0 0 0 0 
0 0 0 0 0 0 0 0 0 
0 0 0 0 0 0 0 0 0 
0 0 0 0 0 0 0 0 0 
0 0 0 0 0 0 0 0 0 
0 0 0 0 0 0 0 0 0 
0 0 0 0 0 0 0 0 0 
0 0 0 0 0 0 0 0 0 
0 0 0 0 0 0 0 0 0 
0 0 0 0 0 0 0 0 0 
0 0 0 0 0 0 0 0 0 
0 0 0 0 0 0 0 0 0 
0 0 0 0 0 0 0 0 0 
0 0 0 0 0 0 0 0 0 
0 0 0 0 0 0 0 0 0 
0 0 0 0 0 0 0 0 0 
0 0 0 0 0 0 0 0 0 
0 0 0 0 0 0 0 0 0 
0 0 0 0 0 0 0 0 0 
0 0 0 0 0 0 0 0 0 
0 0 0 0 0 0 0 0 0 
0 0 0 0 0 0 0 0 0 
0 0 0 0 0 0 0 0 0 
0 0 0 0 0 0 0 0 0 
0 0 0 0 0 0 0 0 0 
0 0 0 0 0 0 0 0 0 
0 0 0 0 0 0 0 0 0 
0 0 0 0 0 0 0 0 0 
0 0 0 0 0 0 0 0 0 
0 0 0 0 0 0 0 0 0 
0 0 0 0 0 0 0 0 0 
0 0 0 0 0 0 0 0 0 
0 0 0 0 0 0 0 0 0 
0 0 0 0 0 0 0 0 0 
0 0 0 0 0 0 0 0 0 
0 0 0 0 0 0 0 0 0 
0 0 0 0 0 0 0 0 0 
0 0 0 0 0 0 0 0 0 
0 0 0 0 0 0 0 0 0 
0 0 0 0 0 0 0 0 0 
0 0 0 0 0 0 0 0 0 
0 0 0 0 0 0 0 0 0 
0 0 0 0 0 0 0 0 0 
0 0 0 0 0 0 0 0 0 
0 0 0 0 0 0 0 0 0 
0 0 0 0 0 0 0 0 0 
0 0 0 0 0 0 0 0 0 
0 0 0 0 0 0 0 0 0 
0 0 0 0 0 0 0 0 0 
0 0 0 0 0 0 0 0 0 
0 0 0 0 0 0 0 0 0 
0 0 0 0 0 0 0 0 0 
0 0 0 0 0 0 0 0 0 
0 0 0 0 0 0 0 0 0 
0 0 0 0 0 0 0 0 0 
0 0 0 0 0 0 0 0 0 
0 0 0 0 0 0 0 0 0 
0 0 0 0 0 0 0 0 0 
0 0 0 0 0 0 0 0 0 
0 0 0 0 0 0 0 0 0 
0 0 0 0 0 0 0 0 0 
0 0 0 0 0 0 0 0 0 
0 0 0 0 0 0 0 0 0 
0 0 0 0 0 0 0 0 0 
0 0 0 0 0 0 0 0 0 
0 0 0 0 0 0 0 0 0 
0 0 0 0 0 0 0 0 0 
0 0 0 0 0 0 0 0 0 
0 0 0 0 0 0 0 0 0 
0 0 0 0 0 0 0 0 0 
0 0 0 0 0 0 0 0 0 
0 0 0 0 0 0 0 0 0 
0 0 0 0 0 0 0 0 0 
0 0 0 0 0 0 0 0 0 
0 0 0 0 0 0 0 0 0 
0 0 0 0 0 0 0 0 0 
0 0 0 0 0 0 0 0 0 
0 0 0 0 0 0 0 0 0 
0 0 0 0 0 0 0 0 0 
0 0 0 0 0 0 0 0 0 
0 0 0 0 0 0 0 0 0 
0 0 0 0 0 0 0 0 0 
0 0 0 0 0 0 0 0 0 
0 0 0 0 0 0 0 0 0 
0 0 0 0 0 0 0 0 0 
0 0 0 0 0 0 0 0 0 
0 0 0 0 0 0 0 0 0 
0 0 0 0 0 0 0 0 0 
0 0 0 0 0 0 0 0 0 
0 0 0 0 0 0 0 0 0 
0 0 0 0 0 0 0 0 0 
0 0 0 0 0 0 0 0 0 
0 0 0 0 0 0 0 0 0 
0 0 0 0 0 0 0 0 0 
0 0 0 0 0 0 0 0 0 
0 0 0 0 0 0 0 0 0 
0 0 0 0 0 0 0 0 0 
0 0 0 0 0 0 0 0 0 
0 0 0 0 0 0 0 0 0 
0 0 0 0 0 0 0 0 0 
0 0 0 0 0 0 0 0 0 
0 0 0 0 0 0 0 0 0 
0 0 0 0 0 0 0 0 0 
0 0 0 0 0 0 0 0 0 
0 0 0 0 0 0 0 0 0 
0 0 0 0 0 0 0 0 0 
0 0 0 0 0 0 0 0 0 
0 0 0 0 0 0 0 0 0 
0 0 0 0 0 0 0 0 0 
0 0 0 0 0 0 0 0 0 
0 0 0 0 0 0 0 0 0 
0 0 0 0 0 0 0 0 0 
0 0 0 0 0 0 0 0 0 
0 0 0 0 0 0 0 0 0 
0 0 0 0 0 0 0 0 0 
0 0 0 0 0 0 0 0 0 
0 0 0 0 0 0 0 0 0 
0 0 0 0 0 0 0 0 0 
0 0 0 0 0 0 0 0 0 
0 0 0 0 0 0 0 0 0 
0 0 0 0 0 0 0 0 0 
0 0 0 0 0 0 0 0 0 
0 0 0 0 0 0 0 0 0 
0 0 0 0 0 0 0 0 0 
0 0 0 0 0 0 0 0 0 
0 0 0 0 0 0 0 0 0 
0 0 0 0 0 0 0 0 0 
0 0 0 0 0 0 0 0 0 
0 0 0 0 0 0 0 0 0 
0 0 0 0 0 0 0 0 0 
0 0 0 0 0 0 0 0 0 
0 0 0 0 0 0 0 0 0 
0 0 0 0 0 0 0 0 0 
0 0 0 0 0 0 0 0 0 
0 0 0 0 0 0 0 0 0 
0 0 0 0 0 0 0 0 0 
0 0 0 0 0 0 0 0 0 
0 0 0 0 0 0 0 0 0 
0 0 0 0 0 0 0 0 0 
0 0 0 0 0 0 0 0 0 
0 0 0 0 0 0 0 0 0 
0 0 0 0 0 0 0 0 0 
0 0 0 0 0 0 0 0 0 
0 0 0 0 0 0 0 0 0 
0 0 0 0 0 0 0 0 0 
0 0 0 0 0 0 0 0 0 
0 0 0 0 0 0 0 0 0 
0 0 0 0 0 0 0 0 0 
0 0 0 0 0 0 0 0 0 
0 0 0 0 0 0 0 0 0 
0 0 0 0 0 0 0 0 0 
0 0 0 0 0 0 0 0 0 
0 0 0 0 0 0 0 0 0 
0 0 0 0 0 0 0 0 0 
0 0 0 0 0 0 0 0 0 
0 0 0 0 0 0 0 0 0 
0 0 0 0 0 0 0 0 0 
0 0 0 0 0 0 0 0 0 
0 0 0 0 0 0 0 0 0 
0 0 0 0 0 0 0 0 0 
0 0 0 0 0 0 0 0 0 
0 0 0 0 0 0 0 0 0 
0 0 0 0 0 0 0 0 0 
0 0 0 0 0 0 0 0 0 
0 0 0 0 0 0 0 0 0 

v 3 1296 double
0.011712751963 -0.0037290385148 -0.0011384930739 0.010048934566 -0.00070430313784 0.0034683114765 -0.15472652587 0.054371164332 0.017807489663 
0.012125191564 0.042760091265 -0.048949172553 -0.0021269421767 0.002177643116 -0.026760055041 -0.029080006669 0.04353332093 0.035337047209 
-0.084222972431 0.081829535961 -0.0015657430505 -0.015970077835 0.15166809512 0.0078683031147 0.0084999301845 0.1323890659 0.0081926522313 
-0.0056303209371 0.0085283445581 0.016039859049 -0.027173646627 0.011902077028 0.021408443641 -0.01040054753 0.0058004044742 0.04555054737 
0.0086390268809 0.038845535794 -0.0015567670795 -0.13682818698 -0.005875656102 -0.051000097522 -0.078830096885 0.05744859893 0.00019912973901 
-0.056515204009 0.17504659774 -0.013208176053 -0.015444081516 0.16804910789 -0.083079636091 0.056732275107 -0.039185307936 -0.0066811744503 
-0.017899220674 0.018956035487 -0.014433201323 0.019798951085 0.040401127349 0.0076420378047 -0.073359751146 0.048740936439 0.033533506534 
0.00042695319134 0.13846042764 0.029105660503 0.00030317957686 0.049567823366 -0.018354212932 0.060759685238 0.03755201171 -0.010385692456 
-0.024108631974 0.052866387327 -0.0092589620461 -0.034900538576 0.00011741016464 0.0088745339976 0.012718550083 0.067616469755 0.01425317236 
0.096087284017 0.12261288527 -0.004294039915 -0.040629181533 0.011950981917 0.025322700445 -0.055110835015 0.016838623604 0.044337729087 
-0.1632132347 0.016458060305 -0.098071338305 0.017418324533 0.057616216922 -0.030352324845 -0.0028608687616 0.066370333775 -0.00082771263609 
-0.034606769077 0.14722991151 -0.037268245218 0.025682621464 0.12898695416 -0.071542077916 -0.013011560337 0.21057775716 -0.067361238852 
-0.023837693753 0.013424326694 0.030482934101 0.050689496961 0.0092180211168 0.0061001687398 -0.046543241901 0.073906791384 0.057776194531 
-0.1093329276 0.013073293453 -0.054392005946 -0.031250205073 0.21919385107 0.082559184695 0.039880780314 0.026113743392 0.024039611571 
-0.084078667498 0.04976864582 -0.029746205785 0.048145546629 0.065638895238 -0.073652038648 -0.011140416409 0.097767829241 -0.12921837017 
-0.02568388976 0.17898130461 0.043235618101 -0.010802272857 0.025878103202 -0.07715799436 0.050432306717 0.0054462273415 0.0010670605307 