# vtk DataFile Version 5.1
Generated by LIGGGHTS
ASCII
DATASET POLYDATA
POINTS 1268 float
-0.135881 0.0558454 -0.143344 -0.13886 0.0694181 -0.14299 -0.107611 0.0895723 -0.1441 
-0.143201 0.0610629 -0.138038 -0.119622 0.0595164 -0.135411 -0.0186285 0.0801619 -0.137926 
-0.0156825 0.114205 -0.138096 -0.10438 0.137598 -0.140928 -0.141207 0.145901 -0.141764 
-0.0711809 0.141588 -0.14068 -0.0813711 0.0615007 -0.132869 -0.00213098 0.0647072 -0.131669 
-0.131537 0.0764075 -0.133476 -0.00162558 0.0846127 -0.12859 -0.0965041 0.0974264 -0.13228 
-0.138058 0.150205 -0.13282 -0.00103888 0.148835 -0.131288 -0.138158 0.0615302 -0.126928 
-0.0389464 0.0792346 -0.127271 -0.0231851 0.101546 -0.124983 -0.0230605 0.139355 -0.12674 
-0.129816 0.0579785 -0.11751 -0.118853 0.0558682 -0.119689 -0.14239 0.0753876 -0.11661 
-0.141966 0.0926962 -0.1133 -0.0332622 0.0960256 -0.115635 -0.0635808 0.123146 -0.118822 
-0.141817 0.0597624 -0.11077 -0.0978761 0.0624174 -0.108214 -0.0387358 0.0843583 -0.112289 
-0.0576127 0.0866725 -0.107115 -0.13187 0.0962998 -0.111433 -0.0836937 0.138129 -0.110666 
-0.0746458 0.134911 -0.106 -0.0281383 0.0621475 -0.0978944 -0.0625864 0.0696222 -0.101905 
-0.0265841 0.110494 -0.0972759 -0.0588887 0.150892 -0.105461 -0.144233 0.0725485 -0.0940334 
-0.0723473 0.165065 -0.0826633 -0.118955 0.18564 -0.0875602 -0.04149 0.0582186 -0.078896 
-0.136403 0.0625084 -0.0804354 -0.0497697 0.0835374 -0.080828 -0.00559433 0.0554794 -0.0678863 
-0.112662 0.0742332 -0.0736991 -0.00403877 0.0812494 -0.0681821 -0.108449 0.0919204 -0.0751693 
-0.036845 0.136048 -0.0696422 -0.0268825 0.140581 -0.0708396 -0.0161429 0.0572049 -0.0677015 
-0.0426542 0.103263 -0.0655499 -0.133283 0.117741 -0.0662056 -0.0685054 0.0622677 -0.0577851 
-0.0965234 0.121164 -0.0569156 -0.00332253 0.132206 -0.0596713 -0.0698497 0.0615142 -0.0474765 
-0.0167013 0.0803506 -0.045607 -0.122227 0.0766905 -0.042672 -0.00247094 0.0832729 -0.0429014 
-0.134077 0.11135 -0.0389496 -0.00348884 0.120909 -0.0423334 -0.0219998 0.069441 -0.0349046 
-0.0330153 0.095391 -0.0306107 -0.0274097 0.136984 -0.0320735 -0.000924386 0.122116 -0.024353 
-0.0539156 0.152249 -0.024985 -0.00375713 0.199766 -0.0242005 -0.00375997 0.199778 -0.0284725 
-0.122915 0.0563695 -0.0157622 -0.105011 0.0607096 -0.0216343 -0.062252 0.0803377 -0.021767 
-0.0127948 0.0869729 -0.0202233 -0.132063 0.154681 -0.0179804 -0.0207438 0.148937 -0.0193658 
-0.132918 0.0582779 -0.014079 -0.0376841 0.0651035 -0.0101534 -0.131759 0.0817687 -0.0081622 
-0.106154 0.0836845 -0.00818077 -0.0889919 0.061604 -0.00510379 -0.000393801 0.057351 -0.00697023 
-0.129523 0.0663244 -0.00422396 -0.0417839 0.0725851 -0.00333176 -0.0774137 0.104058 -0.00317154 
-0.0184202 0.0555235 0.00172241 -0.138228 0.0622328 0.00205951 -0.0296347 0.0552823 0.00937957 
-0.122371 0.076505 0.014645 -0.0135491 0.0818651 0.0142368 -0.105129 0.0864319 0.0143795 
-0.0111898 0.0942438 0.0122638 -0.113294 0.0652689 0.0175043 -0.0187094 0.0673004 0.0151587 
-0.144633 0.0721244 0.0179339 -0.112074 0.0554148 0.0247288 -0.132486 0.0684261 0.0229058 
-0.13124 0.0923276 0.0233113 -0.105809 0.0921777 0.0284843 -0.0422233 0.0993071 0.0263263 
-0.103002 0.158032 0.0279762 -0.120457 0.0847829 0.032905 -0.0220205 0.0802834 0.0409469 
-0.0119338 0.0824073 0.0450577 -0.0924029 0.0872517 0.0446108 -0.0900475 0.141755 0.0447335 
-0.138905 0.199789 0.0451559 -0.0770262 0.073648 0.0520382 -0.0526824 0.0754941 0.0485657 
-0.140883 0.0799161 0.0457122 -0.121784 0.109283 0.0482999 -0.00356046 0.125283 0.050317 
-0.0738218 0.135021 0.0517993 -0.144163 0.148588 0.0492441 -0.0322493 0.0610319 0.0548738 
-0.109133 0.145657 0.0554752 -0.0481277 0.0563805 0.0619708 -0.116699 0.0755444 0.0648295 
-0.0523756 0.169381 0.0644519 -0.140246 0.0611123 0.0709245 -0.00161569 0.0973185 0.0738297 
-0.130946 0.133936 0.074096 -0.0778799 0.17764 0.0762524 -0.0820689 0.058885 0.0860599 
-0.0401472 0.0682698 0.0894504 -0.014474 0.062752 0.0843225 -0.139641 0.0762523 0.0859711 
-0.0538732 0.0864668 0.0871479 -0.0183556 0.119399 0.0902428 -0.115168 0.0666537 0.0914052 
-0.121901 0.0729915 0.101075 -0.109476 0.0986043 0.104838 -0.0307893 0.153603 0.0993341 
-0.0479902 0.184174 0.0998146 -0.0485608 0.0741792 0.112109 -0.00214837 0.092892 0.112869 
-0.127598 0.115007 0.115788 -0.0680711 0.188145 0.119682 -0.0045228 0.0561944 0.122819 
-0.10315 0.168672 0.1253 -0.123601 0.0606569 0.142258 -0.0945976 0.0726497 0.142202 
-0.111696 0.106873 0.135915 -0.103926 0.120202 0.137159 -0.142676 0.199783 0.0413749 
-0.142681 0.199784 0.0451508 -0.138901 0.199789 0.0413799 -0.0857253 0.209923 -0.14654 
-0.0773315 0.209764 -0.14606 -0.0541704 0.224766 -0.146233 -0.0427516 0.224771 -0.146234 
-0.086436 0.235505 -0.146178 -0.077838 0.234944 -0.1457 -0.077091 0.240011 -0.143188 
-0.0541815 0.260447 -0.14663 -0.0427626 0.260453 -0.146631 -0.0856053 0.212412 -0.141068 
-0.0766425 0.212951 -0.142277 -0.0541695 0.224965 -0.134814 -0.0427505 0.22497 -0.134815 
-0.0860539 0.239471 -0.141979 -0.0541805 0.260646 -0.135212 -0.0427615 0.260652 -0.135213 
-0.13658 0.278057 -0.140812 -0.118092 0.278057 -0.140812 -0.13658 0.342211 -0.140812 
-0.118092 0.342211 -0.140812 -0.125136 0.366093 -0.140797 -0.0980664 0.366124 -0.140797 
-0.13658 0.278057 -0.122323 -0.118092 0.278057 -0.122323 -0.13658 0.342211 -0.122323 
-0.118092 0.342211 -0.122323 -0.119507 0.370653 -0.126134 -0.100106 0.370468 -0.125987 
-0.0937898 0.232248 -0.115105 -0.0784935 0.23233 -0.115105 -0.0939082 0.280782 -0.114998 
-0.0786119 0.280863 -0.114998 -0.048234 0.288612 -0.113632 -0.0271509 0.288612 -0.113632 
-0.048234 0.363465 -0.113632 -0.0271509 0.363465 -0.113632 -0.125136 0.366271 -0.113727 
-0.0980662 0.366301 -0.113728 -0.119266 0.370571 -0.106403 -0.100168 0.370403 -0.106401 
-0.0518027 0.222724 -0.103399 -0.0399515 0.221797 -0.102177 -0.0937897 0.232175 -0.0998086 
-0.0784935 0.232256 -0.0998085 -0.0509227 0.260199 -0.102534 -0.0390714 0.259272 -0.101311 
-0.093908 0.280708 -0.099702 -0.078612 0.28079 -0.0997019 -0.0962864 0.28679 -0.0989506 
-0.0762011 0.28679 -0.0989506 -0.0530214 0.310983 -0.100272 -0.0962864 0.357528 -0.0989506 
-0.0762011 0.357528 -0.0989506 -0.0530364 0.221819 -0.0915479 -0.0286662 0.216951 -0.091485 
-0.0187689 0.216962 -0.0915188 -0.0286824 0.246257 -0.0909706 -0.0187851 0.246267 -0.0910043 
-0.0774678 0.267673 -0.0953971 -0.0605752 0.267673 -0.0953867 -0.048234 0.288612 -0.092549 
-0.0271509 0.288612 -0.092549 -0.0392124 0.301365 -0.0973074 -0.0873706 0.311453 -0.0918077 
-0.0704438 0.315626 -0.09242 -0.0774681 0.325243 -0.0953947 -0.048234 0.363465 -0.092549 
-0.0271509 0.363465 -0.092549 -0.0628895 0.386921 -0.0973244 -0.0392124 0.386921 -0.0973244 
-0.0411852 0.220892 -0.0903255 -0.0521563 0.259294 -0.0906827 -0.0403052 0.258367 -0.0894602 
-0.0549039 0.285552 -0.0886348 -0.103939 0.298811 -0.0827379 -0.0754568 0.357888 -0.0888613 
-0.10395 0.381893 -0.082766 -0.123799 0.201687 -0.0769114 -0.118537 0.20243 -0.077212 
-0.124494 0.211969 -0.0778203 -0.119232 0.212712 -0.0781209 -0.0286203 0.216507 -0.0815883 
-0.018723 0.216518 -0.0816221 -0.0286364 0.245812 -0.0810738 -0.0187392 0.245823 -0.0811076 
-0.0934285 0.267649 -0.0813024 -0.0808445 0.268017 -0.0782688 -0.0729699 0.267303 -0.081538 
-0.0605856 0.267671 -0.0784943 -0.0962864 0.28679 -0.0788653 -0.0762011 0.28679 -0.0788653 
-0.127017 0.298804 -0.0824382 -0.0654962 0.299294 -0.075271 -0.0512023 0.309082 -0.0802591 
-0.0268384 0.304123 -0.0782995 -0.00356044 0.303944 -0.0781525 -0.0934285 0.326043 -0.0813024 
-0.0763364 0.326043 -0.0813024 -0.0605858 0.325242 -0.0784918 -0.0666597 0.350236 -0.0822898 
-0.0962864 0.357528 -0.0788653 -0.0762011 0.357528 -0.0788653 -0.127029 0.381886 -0.0824662 
-0.0265756 0.388027 -0.078494 -0.00329763 0.387848 -0.078347 -0.123549 0.202449 -0.0716489 
-0.118286 0.203046 -0.0719488 -0.124244 0.212731 -0.0725578 -0.118982 0.21362 -0.0728593 
-0.07533 0.2857 -0.068092 -0.0548456 0.285746 -0.0681504 -0.0392124 0.301383 -0.0736292 
-0.0753985 0.358082 -0.068377 -0.0549141 0.358129 -0.0684354 -0.0628895 0.386928 -0.0736483 
-0.0392124 0.386928 -0.0736483 -0.108611 0.203223 -0.0656499 -0.108882 0.203246 -0.0601381 
-0.103099 0.203013 -0.065426 -0.108374 0.214728 -0.065672 -0.108645 0.214751 -0.0601601 
-0.102862 0.214518 -0.0654481 -0.0934285 0.267649 -0.0642103 -0.0763364 0.267649 -0.0642103 
-0.0933254 0.288592 -0.0615487 -0.0718433 0.288592 -0.0615487 -0.0212608 0.293345 -0.0607906 
-0.00111432 0.29579 -0.0656002 -0.0651005 0.308641 -0.0616523 -0.0408248 0.308641 -0.0616523 
-0.0934285 0.326043 -0.0642103 -0.0763364 0.326043 -0.0642103 -0.0933254 0.365099 -0.0615656 
-0.0718433 0.365099 -0.0615656 -0.0238036 0.377219 -0.065767 -0.00112436 0.377226 -0.0656534 
-0.0651005 0.396661 -0.0616523 -0.0408248 0.396661 -0.0616523 -0.10337 0.203036 -0.0599142 
-0.103133 0.214541 -0.0599362 -0.126718 0.298823 -0.0593597 -0.103639 0.29883 -0.0596595 
-0.0269855 0.304256 -0.0550215 -0.00624029 0.306516 -0.0597977 -0.126729 0.381905 -0.0593879 
-0.103651 0.381912 -0.0596875 -0.0267227 0.38816 -0.055216 -0.00344471 0.387981 -0.055069 
-0.0829878 0.210142 -0.0384143 -0.0336968 0.250294 -0.0395545 -0.113493 0.273831 -0.0418444 
-0.0952039 0.273831 -0.0418444 -0.138024 0.289337 -0.0412339 -0.117141 0.289337 -0.0412339 
-0.0933254 0.288613 -0.0400658 -0.0718433 0.288613 -0.0400658 -0.0324457 0.301232 -0.0381568 
-0.0239072 0.295819 -0.0430343 -0.00122763 0.295826 -0.042921 -0.0651005 0.308641 -0.0373765 
-0.0408248 0.308641 -0.0373765 -0.113493 0.337163 -0.0418444 -0.0952039 0.337163 -0.0418444 
-0.138024 0.363362 -0.0412332 -0.117141 0.363362 -0.0412332 -0.0933254 0.365103 -0.0400843 
-0.0718433 0.365103 -0.0400843 -0.0239172 0.377256 -0.0430875 -0.00123764 0.377262 -0.0429741 
-0.0651005 0.396661 -0.0373765 -0.0408248 0.396661 -0.0373765 -0.0779652 0.201312 -0.0331209 
-0.077826 0.20116 -0.0381367 -0.082981 0.201156 -0.0332577 -0.0828418 0.201004 -0.0382735 
-0.0779719 0.210299 -0.0382775 -0.0831269 0.210294 -0.0333985 -0.0781111 0.21045 -0.0332617 
[...]
POINT_DATA 1268
FIELD FieldData 8
id 1 1268 int
3781 3801 3749 3894 3745 3730 3789 3994 3970 
3744 2648 3927 2739 3985 3917 3359 3858 3023 
2901 3952 3937 3738 2755 3785 3823 3296 3981 
3024 3931 3852 3685 3908 3180 3932 3844 3966 
3773 3808 3586 3830 3987 3960 3360 3877 3805 
3716 3943 3135 3903 3244 3961 3242 3896 3731 
3939 3809 3918 3757 3727 2962 3920 2824 3714 
3814 3879 2749 3873 4955 4954 3885 3853 3938 
3787 3815 2484 3182 3975 3297 3831 3746 3779 
3971 3786 2961 3919 3925 3962 2902 3782 3906 
2482 3720 3847 3688 3836 3982 3825 3950 3954 
3988 3803 3940 3587 3775 3686 4967 3911 3788 
3854 3955 3719 3996 3909 3747 2823 3406 3631 
3765 3760 3461 3910 3761 3768 2550 3871 3864 
3968 3325 3863 3721 3941 2509 3997 3136 3754 
3776 3963 3977 3632 3689 3729 3875 3956 4962 
4963 4966 4866 4870 4794 4798 4868 4872 4865 
4796 4800 4867 4871 4795 4799 4869 4797 4793 
4442 4446 4444 4448 4018 4022 4443 4447 4445 
4441 4020 4024 4690 4694 4692 4696 4226 4230 
4228 4232 4019 4023 4021 4017 4786 4790 4691 
4695 4788 4792 4693 4689 4330 4334 4042 4332 
4336 4787 4850 4854 4852 4856 4602 4606 4227 
4231 4046 4605 4608 4604 4229 4225 4044 4048 
4791 4789 4785 4286 4088 4284 4090 4922 4926 
4924 4928 4851 4855 4853 4849 4594 4598 4603 
4607 4331 4335 4084 4282 4043 4058 4062 4596 
4600 4601 4288 4333 4329 4086 4060 4064 4923 
4927 4925 4921 4283 4287 4047 4285 4281 4045 
4041 4914 4915 4918 4916 4917 4920 4595 4599 
4194 4198 4138 4142 4026 4030 4597 4593 4196 
4200 4140 4144 4028 4032 4919 4913 4085 4089 
4059 4063 4087 4091 4061 4057 4940 4658 4475 
4479 4258 4262 4195 4199 4660 4139 4143 4027 
4031 4477 4481 4260 4264 4197 4193 4141 4137 
4029 4025 4943 4942 4939 4938 4944 4941 4937 
4483 4487 4092 4485 4474 4956 4957 4659 4578 
4582 4476 4480 4096 4580 4584 4478 4482 4094 
4074 4259 4263 4661 4261 4257 4078 4095 4579 
4583 4076 4093 4581 4577 4080 4075 4073 4082 
4362 4366 4077 4081 4364 4368 4079 4083 4885 
4346 4350 4348 4352 4674 4678 4484 4488 4162 
4166 4676 4680 4486 4473 4164 4168 4363 4367 
4318 4365 4361 4012 4634 4638 4675 4679 4347 
4351 4314 4354 4636 4640 4677 4673 4349 4345 
4356 4316 4320 4498 4266 4270 4146 4150 4163 
4167 4034 4038 4268 4272 4152 4148 4008 4165 
4161 4036 4040 4730 4734 4635 4639 4315 4736 
4732 4637 4355 4115 4119 4633 4269 4317 4004 
4313 4117 4068 4072 4121 4002 4154 4158 4319 
4035 4500 4357 4156 4160 4006 4770 4774 4731 
4735 4772 4776 4499 4234 4210 4214 4238 4733 
4729 4066 4267 4070 4271 4147 4127 4151 4071 
4389 4039 4001 4005 4236 4240 4212 4265 4216 
4145 4125 4149 4114 4037 4033 4771 4775 4387 
4391 4773 4769 4530 4534 4159 4116 4120 4067 
4123 4536 4393 4118 4069 4065 4122 4450 4454 
4586 4590 4418 4422 4155 4452 4456 4124 4532 
4128 4501 4420 4424 4157 4153 4003 4007 4392 
4531 4535 4235 4388 4211 4215 4239 4178 4182 
4592 4533 4529 4394 4237 4296 4233 4213 4209 
4180 4184 4126 4113 4591 4338 4342 4290 4294 
4588 4340 4344 4292 4451 4455 4587 4555 4559 
4395 4399 4419 4423 4453 4449 4390 4589 4585 
4557 4561 4421 4417 4397 4386 4611 4615 4506 
4510 4291 4295 4724 4179 4183 4613 4508 4512 
4293 4289 4181 4177 4623 4738 4742 4722 4726 
4556 4560 4400 4740 4744 4339 4343 4610 4728 
4617 4050 4396 4558 4562 4398 4385 4341 4337 
4052 4874 4619 4826 4830 4810 4814 4621 4828 
4832 4612 4616 4507 4511 4725 4614 4618 4509 
4505 4878 4827 4831 4876 4624 4880 4739 4743 
4723 4727 4812 4816 4609 4741 4737 4721 4620 
4875 4879 4811 4877 4815 4873 4622 4825 4829 
4813 4809 4564 4568 4563 4567 4051 4553 4566 
4565 4554 4055 4053 4884 4883 4961 4968 4964 
4965 3899 3849 3161 3440 3818 3838 3784 3811 
3876 3405 3972 3934 3755 3945 3762 3860 3025 
3726 2591 3900 3778 3717 3964 2481 3957 3741 
3978 3922 3856 4992 2927 2989 3806 3711 3867 
3888 3869 3723 3441 4989 3737 2483 3819 3850 
3324 3614 3712 3881 3797 3851 3766 3162 3665 
3812 3208 3840 2751 3691 3914 3770 3758 3890 
3771 2748 3889 3946 3991 2690 3995 3791 4958 
4959 3732 3442 4971 3764 3777 3870 3668 3263 
3828 3774 3742 4972 4973 4988 4985 4976 4977 
4984 4981 4980 3385 3820 3718 3763 3999 3692 
3913 3915 3916 3923 2963 2790 3993 3979 3974 
3998 3924 3667 3613 2928 3772 3947 3750 3857 
3810 3739 3790 3715 3835 3892 3751 3935 3846 
3443 3298 3861 3733 3958 3833 3800 3936 3926 
2753 3872 3967 3902 3798 3725 3843 3930 3326 
2868 3792 3883 3444 3969 3693 3848 4898 4902 
4900 4904 4714 4718 4716 4720 4899 4903 4901 
4897 4715 4719 4717 4713 4626 4630 4628 4632 
4834 4838 4836 4840 4515 4519 4517 4521 4835 
4839 4837 4833 4627 4631 4402 4406 4629 4625 
4404 4408 4516 4520 4518 4522 4523 4527 4525 
4514 4698 4702 4403 4407 4700 4704 4405 4401 
4524 4528 4426 4430 4526 4513 4428 4432 4754 
4758 4699 4703 4756 4760 4701 4697 4755 4759 
4427 4490 4431 4494 4370 4757 4753 4374 4298 
4302 4429 4492 4425 4496 4372 4376 4300 4304 
4890 4894 4892 4896 4762 4766 4491 4495 4764 
4768 4202 4206 4493 4489 4204 4208 4891 4946 
4950 4895 4952 4948 4893 4889 4763 4767 4686 
4682 4550 4546 4458 4462 4371 4375 4688 4299 
4684 4548 4552 4460 4464 4373 4369 4951 4947 
4945 4949 4662 4761 4765 4303 4664 4301 4297 
4683 4687 4666 4670 4551 4547 4459 4463 4203 
4685 4207 4681 4668 4672 4549 4545 4457 4461 
4205 4201 4960 4953 4862 4860 4864 4663 4858 
4646 4667 4671 4642 4657 4669 4665 4644 4648 
4859 4863 4861 4857 4647 4643 4645 4641 4969 
4970 4991 4990 4974 4975 4987 4986 4978 4979 
4983 4982 4882 4886 4049 4888 4097 4887 4802 
4806 4881 4804 4808 4650 4654 4652 4656 4803 
4807 4805 4801 4010 4014 4746 4750 4651 4655 
4748 4752 4306 4310 4653 4649 4308 4312 4382 
4378 4358 4384 4380 4360 4016 4747 4751 4706 
4710 4749 4745 4502 4540 4307 4311 4186 4708 
4712 4309 4192 4305 4379 4383 4190 4381 4377 
4188 4013 4009 4707 4711 4243 4247 4103 4709 
4504 4185 4353 4245 4249 4101 4105 4011 4015 
4538 4542 4503 4326 4359 4544 4705 4324 4328 
4189 4414 4322 4187 4191 4244 4248 4099 4416 
4246 4250 4539 4543 4410 4541 4537 4100 4104 
4497 4412 4102 4106 4906 4910 4908 4912 4434 
4438 4323 4327 4436 4440 4325 4321 4907 4911 
4909 4905 4411 4415 4413 4409 4218 4222 4255 
4130 4134 4433 4220 4224 4253 4242 4132 4136 
4818 4822 4820 4824 4435 4439 4251 4170 4174 
4437 4172 4176 4842 4846 4819 4823 4782 4466 
4470 4252 4256 4054 4276 4468 4472 4254 4241 
4056 4778 4844 4848 4821 4817 4570 4574 4780 
4784 4274 4278 4219 4223 4131 4135 4107 4111 
4572 4576 4280 4221 4217 4133 4129 4109 4098 
4843 4847 4930 4934 4935 4931 4929 4936 4932 
4933 4779 4783 4845 4841 4777 4171 4175 4173 
4169 4275 4279 4571 4575 4781 4467 4471 4108 
4112 4277 4573 4569 4273 4469 4465 4110 
type 1 1268 int
2 2 2 2 2 2 2 2 2 
2 2 2 2 2 2 2 2 2 
2 2 2 2 2 2 2 2 2 
2 2 2 2 2 2 2 2 2 
2 2 2 2 2 2 2 2 2 
2 2 2 2 2 2 2 2 2 
2 2 2 2 2 2 2 2 2 
2 2 2 2 2 2 2 2 2 
2 2 2 2 2 2 2 2 2 
2 2 2 2 2 2 2 2 2 
2 2 2 2 2 2 2 2 2 
2 2 2 2 2 2 2 2 2 
2 2 2 2 2 2 2 2 2 
2 2 2 2 2 2 2 2 2 
2 2 2 2 2 2 2 2 2 
2 2 2 2 2 2 2 2 2 
2 2 2 2 2 2 2 2 2 
2 2 2 2 2 2 2 2 2 
2 2 2 2 2 2 2 2 2 
2 2 2 2 2 2 2 2 2 
2 2 2 2 2 2 2 2 2 
2 2 2 2 2 2 2 2 2 
2 2 2 2 2 2 2 2 2 
2 2 2 2 2 2 2 2 2 
2 2 2 2 2 2 2 2 2 
2 2 2 2 2 2 2 2 2 
2 2 2 2 2 2 2 2 2 
2 2 2 2 2 2 2 2 2 
2 2 2 2 2 2 2 2 2 
2 2 2 2 2 2 2 2 2 
2 2 2 2 2 2 2 2 2 
2 2 2 2 2 2 2 2 2 
2 2 2 2 2 2 2 2 2 
2 2 2 2 2 2 2 2 2 
2 2 2 2 2 2 2 2 2 
2 2 2 2 2 2 2 2 2 
2 2 2 2 2 2 2 2 2 
2 2 2 2 2 2 2 2 2 
2 2 2 2 2 2 2 2 2 
2 2 2 2 2 2 2 2 2 
2 2 2 2 2 2 2 2 2 
2 2 2 2 2 2 2 2 2 
2 2 2 2 2 2 2 2 2 
2 2 2 2 2 2 2 2 2 
2 2 2 2 2 2 2 2 2 
2 2 2 2 2 2 2 2 2 
2 2 2 2 2 2 2 2 2 
2 2 2 2 2 2 2 2 2 
2 2 2 2 2 2 2 2 2 
2 2 2 2 2 2 2 2 2 
2 2 2 2 2 2 2 2 2 
2 2 2 2 2 2 2 2 2 
2 2 2 2 2 2 2 2 2 
2 2 2 2 2 2 2 2 2 
2 2 2 2 2 2 2 2 2 
2 2 2 2 2 2 2 2 2 
2 2 2 2 2 2 2 2 2 
2 2 2 2 2 2 2 2 2 
2 2 2 2 2 2 2 2 2 
2 2 2 2 2 2 2 2 2 
2 2 2 2 2 2 2 2 2 
2 2 2 2 2 2 2 2 2 
2 2 2 2 2 2 2 2 2 
2 2 2 2 2 2 2 2 2 
2 2 2 2 2 2 2 2 2 
2 2 2 2 2 2 2 2 2 
2 2 2 2 2 2 2 2 2 
2 2 2 2 2 2 2 2 2 
2 2 2 2 2 2 2 2 2 
2 2 2 2 2 2 2 2 2 
2 2 2 2 2 2 2 2 2 
2 2 2 2 2 2 2 2 2 
2 2 2 2 2 2 2 2 2 
2 2 2 2 2 2 2 2 2 
2 2 2 2 2 2 2 2 2 
2 2 2 2 2 2 2 2 2 
2 2 2 2 2 2 2 2 2 
2 2 2 2 2 2 2 2 2 
2 2 2 2 2 2 2 2 2 
2 2 2 2 2 2 2 2 2 
2 2 2 2 2 2 2 2 2 
2 2 2 2 2 2 2 2 2 
2 2 2 2 2 2 2 2 2 
2 2 2 2 2 2 2 2 2 
2 2 2 2 2 2 2 2 2 
2 2 2 2 2 2 2 2 2 
2 2 2 2 2 2 2 2 2 
2 2 2 2 2 2 2 2 2 
2 2 2 2 2 2 2 2 2 
2 2 2 2 2 2 2 2 2 
2 2 2 2 2 2 2 2 2 
2 2 2 2 2 2 2 2 2 
2 2 2 2 2 2 2 2 2 
2 2 2 2 2 2 2 2 2 
2 2 2 2 2 2 2 2 2 
2 2 2 2 2 2 2 2 2 
2 2 2 2 2 2 2 2 2 
2 2 2 2 2 2 2 2 2 
2 2 2 2 2 2 2 2 2 
2 2 2 2 2 2 2 2 2 
2 2 2 2 2 2 2 2 2 
2 2 2 2 2 2 2 2 2 
2 2 2 2 2 2 2 2 2 
2 2 2 2 2 2 2 2 2 
2 2 2 2 2 2 2 2 2 
2 2 2 2 2 2 2 2 2 
2 2 2 2 2 2 2 2 2 
2 2 2 2 2 2 2 2 2 
2 2 2 2 2 2 2 2 2 
2 2 2 2 2 2 2 2 2 
2 2 2 2 2 2 2 2 2 
2 2 2 2 2 2 2 2 2 
2 2 2 2 2 2 2 2 2 
2 2 2 2 2 2 2 2 2 
2 2 2 2 2 2 2 2 2 
2 2 2 2 2 2 2 2 2 
2 2 2 2 2 2 2 2 2 
2 2 2 2 2 2 2 2 2 
2 2 2 2 2 2 2 2 2 
2 2 2 2 2 2 2 2 2 
2 2 2 2 2 2 2 2 2 
2 2 2 2 2 2 2 2 2 
2 2 2 2 2 2 2 2 2 
2 2 2 2 2 2 2 2 2 
2 2 2 2 2 2 2 2 2 
2 2 2 2 2 2 2 2 2 
2 2 2 2 2 2 2 2 2 
2 2 2 2 2 2 2 2 2 
2 2 2 2 2 2 2 2 2 
2 2 2 2 2 2 2 2 2 
2 2 2 2 2 2 2 2 2 
2 2 2 2 2 2 2 2 2 
2 2 2 2 2 2 2 2 2 
2 2 2 2 2 2 2 2 2 
2 2 2 2 2 2 2 2 2 
2 2 2 2 2 2 2 2 2 
2 2 2 2 2 2 2 2 2 
2 2 2 2 2 2 2 2 2 
2 2 2 2 2 2 2 2 2 
2 2 2 2 2 2 2 2 2 
2 2 2 2 2 2 2 2 
i 3 1268 int
0 0 0 0 0 0 0 0 0 
0 0 0 0 0 0 0 0 0 
0 0 0 0 0 0 0 0 0 
0 0 0 0 0 0 0 0 0 
0 0 0 0 0 0 0 0 0 
0 0 0 0 0 0 0 0 0 
0 0 0 0 0 0 0 0 0 
0 0 0 0 0 0 0 0 0 
0 0 0 0 0 0 0 0 0 
0 0 0 0 0 0 0 0 0 
0 0 0 0 0 0 0 0 0 
0 0 0 0 0 0 0 0 0 
0 0 0 0 0 0 0 0 0 
0 0 0 0 0 0 0 0 0 
0 0 0 0 0 0 0 0 0 
0 0 0 0 0 0 0 0 0 
0 0 0 0 0 0 0 0 0 
0 0 0 0 0 0 0 0 0 
0 0 0 0 0 0 0 0 0 
0 0 0 0 0 0 0 0 0 
0 0 0 0 0 0 0 0 0 
0 0 0 0 0 0 0 0 0 
0 0 0 0 0 0 0 0 0 
0 0 0 0 0 0 0 0 0 
0 0 0 0 0 0 0 0 0 
0 0 0 0 0 0 0 0 0 
0 0 0 0 0 0 0 0 0 
0 0 0 0 0 0 0 0 0 
0 0 0 0 0 0 0 0 0 
0 0 0 0 0 0 0 0 0 
0 0 0 0 0 0 0 0 0 
0 0 0 0 0 0 0 0 0 
0 0 0 0 0 0 0 0 0 
0 0 0 0 0 0 0 0 0 
0 0 0 0 0 0 0 0 0 
0 0 0 0 0 0 0 0 0 
0 0 0 0 0 0 0 0 0 
0 0 0 0 0 0 0 0 0 
0 0 0 0 0 0 0 0 0 
0 0 0 0 0 0 0 0 0 
0 0 0 0 0 0 0 0 0 
0 0 0 0 0 0 0 0 0 
0 0 0 0 0 0 0 0 0 
0 0 0 0 0 0 0 0 0 
0 0 0 0 0 0 0 0 0 
0 0 0 0 0 0 0 0 0 
0 0 0 0 0 0 0 0 0 
0 0 0 0 0 0 0 0 0 
0 0 0 0 0 0 0 0 0 
0 0 0 0 0 0 0 0 0 
0 0 0 0 0 0 0 0 0 
0 0 0 0 0 0 0 0 0 
0 0 0 0 0 0 0 0 0 
0 0 0 0 0 0 0 0 0 
0 0 0 0 0 0 0 0 0 
0 0 0 0 0 0 0 0 0 
0 0 0 0 0 0 0 0 0 
0 0 0 0 0 0 0 0 0 
0 0 0 0 0 0 0 0 0 
0 0 0 0 0 0 0 0 0 
0 0 0 0 0 0 0 0 0 
0 0 0 0 0 0 0 0 0 
0 0 0 0 0 0 0 0 0 
0 0 0 0 0 0 0 0 0 
0 0 0 0 0 0 0 0 0 
0 0 0 0 0 0 0 0 0 
0 0 0 0 0 0 0 0 0 
0 0 0 0 0 0 0 0 0 
0 0 0 0 0 0 0 0 0 
0 0 0 0 0 0 0 0 0 
0 0 0 0 0 0 0 0 0 
0 0 0 0 0 0 0 0 0 
0 0 0 0 0 0 0 0 0 
0 0 0 0 0 0 0 0 0 
0 0 0 0 0 0 0 0 0 
0 0 0 0 0 0 0 0 0 
0 0 0 0 0 0 0 0 0 
0 0 0 0 0 0 0 0 0 
0 0 0 0 0 0 0 0 0 
0 0 0 0 0 0 0 0 0 
0 0 0 0 0 0 0 0 0 
0 0 0 0 0 0 0 0 0 
0 0 0 0 0 0 0 0 0 
0 0 0 0 0 0 0 0 0 
0 0 0 0 0 0 0 0 0 
0 0 0 0 0 0 0 0 0 
0 0 0 0 0 0 0 0 0 
0 0 0 0 0 0 0 0 0 
0 0 0 0 0 0 0 0 0 
0 0 0 0 0 0 0 0 0 
0 0 0 0 0 0 0 0 0 
0 0 0 0 0 0 0 0 0 
0 0 0 0 0 0 0 0 0 
0 0 0 0 0 0 0 0 0 
0 0 0 0 0 0 0 0 0 
0 0 0 0 0 0 0 0 0 
0 0 0 0 0 0 0 0 0 
0 0 0 0 0 0 0 0 0 
0 0 0 0 0 0 0 0 0 
0 0 0 0 0 0 0 0 0 
0 0 0 0 0 0 0 0 0 
0 0 0 0 0 0 0 0 0 
0 0 0 0 0 0 0 0 0 
0 0 0 0 0 0 0 0 0 
0 0 0 0 0 0 0 0 0 
0 0 0 0 0 0 0 0 0 
0 0 0 0 0 0 0 0 0 
0 0 0 0 0 0 0 0 0 
0 0 0 0 0 0 0 0 0 
0 0 0 0 0 0 0 0 0 
0 0 0 0 0 0 0 0 0 
0 0 0 0 0 0 0 0 0 
0 0 0 0 0 0 0 0 0 
0 0 0 0 0 0 0 0 0 
0 0 0 0 0 0 0 0 0 
0 0 0 0 0 0 0 0 0 
0 0 0 0 0 0 0 0 0 
0 0 0 0 0 0 0 0 0 
0 0 0 0 0 0 0 0 0 
0 0 0 0 0 0 0 0 0 
0 0 0 0 0 0 0 0 0 
0 0 0 0 0 0 0 0 0 
0 0 0 0 0 0 0 0 0 
0 0 0 0 0 0 0 0 0 
0 0 0 0 0 0 0 0 0 
0 0 0 0 0 0 0 0 0 
0 0 0 0 0 0 0 0 0 
0 0 0 0 0 0 0 0 0 
0 0 0 0 0 0 0 0 0 
0 0 0 0 0 0 0 0 0 
0 0 0 0 0 0 0 0 0 
0 0 0 0 0 0 0 0 0 
0 0 0 0 0 0 0 0 0 
0 0 0 0 0 0 0 0 0 
0 0 0 0 0 0 0 0 0 
0 0 0 0 0 0 0 0 0 
0 0 0 0 0 0 0 0 0 
0 0 0 0 0 0 0 0 0 
0 0 0 0 0 0 0 0 0 
0 0 0 0 0 0 0 0 0 
0 0 0 0 0 0 0 0 0 
0 0 0 0 0 0 0 0 0 
0 0 0 0 0 0 0 0 0 
0 0 0 0 0 0 0 0 0 
0 0 0 0 0 0 0 0 0 
0 0 0 0 0 0 0 0 0 
0 0 0 0 0 0 0 0 0 
0 0 0 0 0 0 0 0 0 
0 0 0 0 0 0 0 0 0 
0 0 0 0 0 0 0 0 0 
0 0 0 0 0 0 0 0 0 
0 0 0 0 0 0 0 0 0 
0 0 0 0 0 0 0 0 0 
0 0 0 0 0 0 0 0 0 
0 0 0 0 0 0 0 0 0 
0 0 0 0 0 0 0 0 0 
0 0 0 0 0 0 0 0 0 
0 0 0 0 0 0 0 0 0 
0 0 0 0 0 0 0 0 0 
0 0 0 0 0 0 0 0 0 
0 0 0 0 0 0 0 0 0 
0 0 0 0 0 0 0 0 0 
0 0 0 0 0 0 0 0 0 
0 0 0 0 0 0 0 0 0 
0 0 0 0 0 0 0 0 0 
0 0 0 0 0 0 0 0 0 
0 0 0 0 0 0 0 0 0 
0 0 0 0 0 0 0 0 0 
0 0 0 0 0 0 0 0 0 
0 0 0 0 0 0 0 0 0 
0 0 0 0 0 0 0 0 0 
0 0 0 0 0 0 0 0 0 
0 0 0 0 0 0 0 0 0 
0 0 0 0 0 0 0 0 0 
0 0 0 0 0 0 0 0 0 
0 0 0 0 0 0 0 0 0 
0 0 0 0 0 0 0 0 0 
0 0 0 0 0 0 0 0 0 
0 0 0 0 0 0 0 0 0 
0 0 0 0 0 0 0 0 0 
0 0 0 0 0 0 0 0 0 
0 0 0 0 0 0 0 0 0 
0 0 0 0 0 0 0 0 0 
0 0 0 0 0 0 0 0 0 
0 0 0 0 0 0 0 0 0 
0 0 0 0 0 0 0 0 0 
0 0 0 0 0 0 0 0 0 
0 0 0 0 0 0 0 0 0 
0 0 0 0 0 0 0 0 0 
0 0 0 0 0 0 0 0 0 
0 0 0 0 0 0 0 0 0 
0 0 0 0 0 0 0 0 0 
0 0 0 0 0 0 0 0 0 
0 0 0 0 0 0 0 0 0 
0 0 0 0 0 0 0 0 0 
0 0 0 0 0 0 0 0 0 
0 0 0 0 0 0 0 0 0 
0 0 0 0 0 0 0 0 0 
0 0 0 0 0 0 0 0 0 
0 0 0 0 0 0 0 0 0 
0 0 0 0 0 0 0 0 0 
0 0 0 0 0 0 0 0 0 
0 0 0 0 0 0 0 0 0 
0 0 0 0 0 0 0 0 0 
0 0 0 0 0 0 0 0 0 
0 0 0 0 0 0 0 0 0 
0 0 0 0 0 0 0 0 0 
0 0 0 0 0 0 0 0 0 
0 0 0 0 0 0 0 0 0 
0 0 0 0 0 0 0 0 0 
0 0 0 0 0 0 0 0 0 
0 0 0 0 0 0 0 0 0 
0 0 0 0 0 0 0 0 0 
0 0 0 0 0 0 0 0 0 
0 0 0 0 0 0 0 0 0 
0 0 0 0 0 0 0 0 0 
0 0 0 0 0 0 0 0 0 
0 0 0 0 0 0 0 0 0 
0 0 0 0 0 0 0 0 0 
0 0 0 0 0 0 0 0 0 
0 0 0 0 0 0 0 0 0 
0 0 0 0 0 0 0 0 0 
0 0 0 0 0 0 0 0 0 
0 0 0 0 0 0 0 0 0 
0 0 0 0 0 0 0 0 0 
0 0 0 0 0 0 0 0 0 
0 0 0 0 0 0 0 0 0 
0 0 0 0 0 0 0 0 0 
0 0 0 0 0 0 0 0 0 
0 0 0 0 0 0 0 0 0 
0 0 0 0 0 0 0 0 0 
0 0 0 0 0 0 0 0 0 
0 0 0 0 0 0 0 0 0 
0 0 0 0 0 0 0 0 0 
0 0 0 0 0 0 0 0 0 
0 0 0 0 0 0 0 0 0 
0 0 0 0 0 0 0 0 0 
0 0 0 0 0 0 0 0 0 
0 0 0 0 0 0 0 0 0 
0 0 0 0 0 0 0 0 0 
0 0 0 0 0 0 0 0 0 
0 0 0 0 0 0 0 0 0 
0 0 0 0 0 0 0 0 0 
0 0 0 0 0 0 0 0 0 
0 0 0 0 0 0 0 0 0 
0 0 0 0 0 0 0 0 0 
0 0 0 0 0 0 0 0 0 
0 0 0 0 0 0 0 0 0 
0 0 0 0 0 0 0 0 0 
0 0 0 0 0 0 0 0 0 
0 0 0 0 0 0 0 0 0 
0 0 0 0 0 0 0 0 0 
0 0 0 0 0 0 0 0 0 
0 0 0 0 0 0 0 0 0 
0 0 0 0 0 0 0 0 0 
0 0 0 0 0 0 0 0 0 
0 0 0 0 0 0 0 0 0 
0 0 0 0 0 0 0 0 0 
0 0 0 0 0 0 0 0 0 
0 0 0 0 0 0 0 0 0 
0 0 0 0 0 0 0 0 0 
0 0 0 0 0 0 0 0 0 
0 0 0 0 0 0 0 0 0 
0 0 0 0 0 0 0 0 0 
0 0 0 0 0 0 0 0 0 
0 0 0 0 0 0 0 0 0 
0 0 0 0 0 0 0 0 0 
0 0 0 0 0 0 0 0 0 
0 0 0 0 0 0 0 0 0 
0 0 0 0 0 0 0 0 0 
0 0 0 0 0 0 0 0 0 
0 0 0 0 0 0 0 0 0 
0 0 0 0 0 0 0 0 0 
0 0 0 0 0 0 0 0 0 
0 0 0 0 0 0 0 0 0 
0 0 0 0 0 0 0 0 0 
0 0 0 0 0 0 0 0 0 
0 0 0 0 0 0 0 0 0 
0 0 0 0 0 0 0 0 0 
0 0 0 0 0 0 0 0 0 
0 0 0 0 0 0 0 0 0 
0 0 0 0 0 0 0 0 0 
0 0 0 0 0 0 0 0 0 
0 0 0 0 0 0 0 0 0 
0 0 0 0 0 0 0 0 0 
0 0 0 0 0 0 0 0 0 
0 0 0 0 0 0 0 0 0 
0 0 0 0 0 0 0 0 0 
0 0 0 0 0 0 0 0 0 
0 0 0 0 0 0 0 0 0 
0 0 0 0 0 0 0 0 0 
0 0 0 0 0 0 0 0 0 
0 0 0 0 0 0 0 0 0 
0 0 0 0 0 0 0 0 0 
0 0 0 0 0 0 0 0 0 
0 0 0 0 0 0 0 0 0 
0 0 0 0 0 0 0 0 0 
0 0 0 0 0 0 0 0 0 
0 0 0 0 0 0 0 0 0 
0 0 0 0 0 0 0 0 0 
0 0 0 0 0 0 0 0 0 
0 0 0 0 0 0 0 0 0 
0 0 0 0 0 0 0 0 0 
0 0 0 0 0 0 0 0 0 
0 0 0 0 0 0 0 0 0 
0 0 0 0 0 0 0 0 0 
0 0 0 0 0 0 0 0 0 
0 0 0 0 0 0 0 0 0 
0 0 0 0 0 0 0 0 0 
0 0 0 0 0 0 0 0 0 
0 0 0 0 0 0 0 0 0 
0 0 0 0 0 0 0 0 0 
0 0 0 0 0 0 0 0 0 
0 0 0 0 0 0 0 0 0 
0 0 0 0 0 0 0 0 0 
0 0 0 0 0 0 0 0 0 
0 0 0 0 0 0 0 0 0 
0 0 0 0 0 0 0 0 0 
0 0 0 0 0 0 0 0 0 
0 0 0 0 0 0 0 0 0 
0 0 0 0 0 0 0 0 0 
0 0 0 0 0 0 0 0 0 
0 0 0 0 0 0 0 0 0 
0 0 0 0 0 0 0 0 0 
0 0 0 0 0 0 0 0 0 
0 0 0 0 0 0 0 0 0 
0 0 0 0 0 0 0 0 0 
0 0 0 0 0 0 0 0 0 
0 0 0 0 0 0 0 0 0 
0 0 0 0 0 0 0 0 0 
0 0 0 0 0 0 0 0 0 
0 0 0 0 0 0 0 0 0 
0 0 0 0 0 0 0 0 0 
0 0 0 0 0 0 0 0 0 
0 0 0 0 0 0 0 0 0 
0 0 0 0 0 0 0 0 0 
0 0 0 0 0 0 0 0 0 
0 0 0 0 0 0 0 0 0 
0 0 0 0 0 0 0 0 0 
0 0 0 0 0 0 0 0 0 
0 0 0 0 0 0 0 0 0 
0 0 0 0 0 0 0 0 0 
0 0 0 0 0 0 0 0 0 
0 0 0 0 0 0 0 0 0 
0 0 0 0 0 0 0 0 0 
0 0 0 0 0 0 0 0 0 
0 0 0 0 0 0 0 0 0 
0 0 0 0 0 0 0 0 0 
0 0 0 0 0 0 0 0 0 
0 0 0 0 0 0 0 0 0 
0 0 0 0 0 0 0 0 0 
0 0 0 0 0 0 0 0 0 
0 0 0 0 0 0 0 0 0 
0 0 0 0 0 0 0 0 0 
0 0 0 0 0 0 0 0 0 
0 0 0 0 0 0 0 0 0 
0 0 0 0 0 0 0 0 0 
0 0 0 0 0 0 0 0 0 
0 0 0 0 0 0 0 0 0 
0 0 0 0 0 0 0 0 0 
0 0 0 0 0 0 0 0 0 
0 0 0 0 0 0 0 0 0 
0 0 0 0 0 0 0 0 0 
0 0 0 0 0 0 0 0 0 
0 0 0 0 0 0 0 0 0 
0 0 0 0 0 0 0 0 0 
0 0 0 0 0 0 0 0 0 
0 0 0 0 0 0 0 0 0 
0 0 0 0 0 0 0 0 0 
0 0 0 0 0 0 0 0 0 
0 0 0 0 0 0 0 0 0 
0 0 0 0 0 0 0 0 0 
0 0 0 0 0 0 0 0 0 
0 0 0 0 0 0 0 0 0 
0 0 0 0 0 0 0 0 0 
0 0 0 0 0 0 0 0 0 
0 0 0 0 0 0 0 0 0 
0 0 0 0 0 0 0 0 0 
0 0 0 0 0 0 0 0 0 
0 0 0 0 0 0 0 0 0 
0 0 0 0 0 0 0 0 0 
0 0 0 0 0 0 0 0 0 
0 0 0 0 0 0 0 0 0 
0 0 0 0 0 0 0 0 0 
0 0 0 0 0 0 0 0 0 
0 0 0 0 0 0 0 0 0 
0 0 0 0 0 0 0 0 0 
0 0 0 0 0 0 0 0 0 
0 0 0 0 0 0 0 0 0 
0 0 0 0 0 0 0 0 0 
0 0 0 0 0 0 0 0 0 
0 0 0 0 0 0 0 0 0 
0 0 0 0 0 0 0 0 0 
0 0 0 0 0 0 0 0 0 
0 0 0 0 0 0 0 0 0 
0 0 0 0 0 0 0 0 0 
0 0 0 0 0 0 0 0 0 
0 0 0 0 0 0 0 0 0 
0 0 0 0 0 0 0 0 0 
0 0 0 0 0 0 0 0 0 
0 0 0 0 0 0 0 0 0 
0 0 0 0 0 0 0 0 0 
0 0 0 0 0 0 0 0 0 
0 0 0 0 0 0 0 0 0 
0 0 0 0 0 0 0 0 0 
0 0 0 0 0 0 0 0 0 
0 0 0 0 0 0 0 0 0 
0 0 0 0 0 0 0 0 0 
0 0 0 0 0 0 0 0 0 
0 0 0 0 0 0 0 0 0 
0 0 0 0 0 0 0 0 0 
0 0 0 0 0 0 0 0 0 
0 0 0 0 0 0 0 0 0 
0 0 0 0 0 0 0 0 0 
0 0 0 0 0 0 0 0 0 
0 0 0 0 0 0 0 0 0 
0 0 0 0 0 0 0 0 0 
0 0 0 0 0 0 0 0 0 
0 0 0 0 0 0 0 0 0 
0 0 0 0 0 0 0 0 0 
0 0 0 0 0 0 0 0 0 
0 0 0 0 0 0 0 0 0 
0 0 0 0 0 0 
v 3 1268 double
0.0080156891962 -0.0015029605931 0.004447886628 0.010048934566 -0.00070430313784 0.0034683114765 -0.15472652587 0.054371164332 0.017807489663 
0.0015701205898 -4.843480566e-05 -0.032346434743 -0.0056303209371 0.0085283445581 0.016039859049 -0.029080006669 0.04353332093 0.035337047209 
-0.084222972431 0.081829535961 -0.0015657430505 -0.015970077835 0.15166809512 0.0078683031147 0.012125191564 0.042760091265 -0.048949172553 
0.0084999301845 0.1323890659 0.0081926522313 -0.027173646627 0.011902077028 0.021408443641 -0.01040054753 0.0058004044742 0.04555054737 
0.0086390268809 0.038845535794 -0.0015567670795 -0.13682818698 -0.005875656102 -0.051000097522 -0.078830096885 0.05744859893 0.00019912973901 
-0.056515204009 0.17504659774 -0.013208176053 -0.015444081516 0.16804910789 -0.083079636091 0.056732275107 -0.039185307936 -0.0066811744503 
0.019798951085 0.040401127349 0.0076420378047 -0.073359751146 0.048740936439 0.033533506534 0.00042695319134 0.13846042764 0.029105660503 
0.00030317957686 0.049567823366 -0.018354212932 -0.017899220674 0.018956035487 -0.014433201323 0.060759685238 0.03755201171 -0.010385692456 
-0.034900538576 0.00011741016464 0.0088745339976 0.012718550083 0.067616469755 0.01425317236 0.096087284017 0.12261288527 -0.004294039915 
-0.040629181533 0.011950981917 0.025322700445 -0.055110835015 0.016838623604 0.044337729087 -0.024108631974 0.052866387327 -0.0092589620461 
0.017418324533 0.057616216922 -0.030352324845 -0.0028608687616 0.066370333775 -0.00082771263609 -0.034606769077 0.14722991151 -0.037268245218 
0.025682621464 0.12898695416 -0.071542077916 -0.023837693753 0.013424326694 0.030482934101 -0.1632132347 0.016458060305 -0.098071338305 
-0.046543241901 0.073906791384 0.057776194531 -0.013011560337 0.21057775716 -0.067361238852 0.050689496961 0.0092180211168 0.0061001687398 
-0.02568388976 0.17898130461 0.043235618101 -0.031250205073 0.21919385107 0.082559184695 0.039880780314 0.026113743392 0.024039611571 
-0.1093329276 0.013073293453 -0.054392005946 -0.084078667498 0.04976864582 -0.029746205785 0.062517167846 -0.013635386895 0.0011110630362 
0.047803103404 -0.019324961862 -0.018901646946 0.010421709988 0.032597662155 0.089304931032 0.048145546629 0.065638895238 -0.073652038648 
0.035121297983 0.12847363527 0.096812815135 -0.011140416409 0.097767829241 -0.12921837017 -0.010802272857 0.025878103202 -0.07715799436 
8.7304082862e-05 0.05658216547 0.0490846904 0.042602169189 0.089323789222 -0.065956124659 -0.10333551405 0.024789033133 -0.017122266874 
-0.016476201133 0.099454444818 -0.084306564822 0.088817694295 0.1124998154 -0.053149249242 0.013917532126 0.014031304919 0.047565412597 