# vtk DataFile Version 5.1
Generated by LIGGGHTS
ASCII
DATASET POLYDATA
POINTS 1191 float
-0.136282 0.0559205 -0.143566 -0.139363 0.0694534 -0.143163 -0.0998743 0.0868538 -0.14499 
-0.143279 0.0610653 -0.136421 -0.11934 0.05909 -0.136213 -0.0171745 0.0779852 -0.139693 
-0.0114713 0.110113 -0.138018 -0.103581 0.130015 -0.141321 -0.0716059 0.134969 -0.141089 
-0.143505 0.142427 -0.141666 -0.0800124 0.0609056 -0.13394 -0.00161095 0.0644172 -0.133947 
-0.131969 0.0744653 -0.133398 -0.0399363 0.0772146 -0.127653 -0.0925626 0.094554 -0.13229 
-0.0230818 0.132432 -0.128195 -0.133541 0.142789 -0.129809 -0.140995 0.0634894 -0.126594 
-0.0195172 0.0991089 -0.126659 -0.00026668 0.140433 -0.127134 -0.129831 0.0555001 -0.116592 
-0.117974 0.0550577 -0.118958 -0.144288 0.0732371 -0.116042 -0.142141 0.0920641 -0.114058 
-0.0338982 0.0926448 -0.116348 -0.0683852 0.117015 -0.118607 -0.139786 0.0591648 -0.112036 
-0.0951205 0.0615754 -0.110431 -0.0584836 0.0837917 -0.105597 -0.0375304 0.081715 -0.111826 
-0.129807 0.0936075 -0.111077 -0.0828625 0.131717 -0.1101 -0.0269464 0.0614763 -0.0994186 
-0.024257 0.106798 -0.100165 -0.0750307 0.127512 -0.101125 -0.0582381 0.140363 -0.102092 
-0.0544257 0.0687993 -0.0970013 -0.140882 0.0707881 -0.0962724 -0.117393 0.174681 -0.0916882 
-0.0710631 0.156116 -0.0848251 -0.0434841 0.0569129 -0.080098 -0.130937 0.0618547 -0.0777158 
-0.0455658 0.0810489 -0.0793407 -0.038601 0.129624 -0.0744829 -0.00453476 0.0553232 -0.0682926 
-0.115053 0.0751995 -0.072754 -0.00455985 0.0796196 -0.0726473 -0.110857 0.0886384 -0.0714867 
-0.0426585 0.100434 -0.0680041 -0.0197882 0.056749 -0.0634928 -0.135413 0.113275 -0.0629077 
-0.0263255 0.135692 -0.0643787 -0.122564 0.195945 -0.0682705 -0.109414 0.196454 -0.0615061 
-0.0632617 0.0613093 -0.0588415 -0.00776341 0.126581 -0.0570138 -0.0706224 0.0605316 -0.0479423 
-0.121043 0.0747666 -0.0465555 -0.0188968 0.0789893 -0.0490048 -0.00903307 0.0798388 -0.0459028 
-0.0956996 0.116191 -0.0527002 -0.000425393 0.102205 -0.0439568 -0.00813067 0.115093 -0.0406474 
-0.0159304 0.0682632 -0.0317579 -0.0394178 0.0905353 -0.034137 -0.135504 0.110098 -0.0357362 
-0.0518566 0.14477 -0.0323832 -0.0729244 0.195052 -0.0313438 -0.000625989 0.0858237 -0.0241177 
-0.00419569 0.115424 -0.0261271 -0.0257483 0.13041 -0.0284516 -0.121186 0.0556457 -0.0156036 
-0.106619 0.0598374 -0.0223263 -0.0638315 0.078159 -0.0205021 -0.0160983 0.0854486 -0.020804 
-0.132534 0.14713 -0.0168533 -0.130714 0.0591445 -0.0133945 -0.0390357 0.0640137 -0.00892544 
-0.131897 0.0784447 -0.00920965 -0.081015 0.0994341 -0.00845541 -0.0136109 0.141793 -0.0128783 
-0.0877639 0.061036 -0.00453519 -0.0159493 0.0568301 -0.0020429 -0.00321876 0.0574281 -0.0064264 
-0.125755 0.0652405 -0.00459152 -0.0452164 0.0716838 -0.00635554 -0.1069 0.081464 -0.00608996 
-0.138091 0.0612032 0.0012104 -0.0102101 0.0913881 0.00727687 -0.0306449 0.0550884 0.0111268 
-0.12186 0.0747326 0.0131592 -0.0160193 0.0797102 0.0149074 -0.132739 0.067583 0.0207718 
-0.112257 0.0634644 0.0167554 -0.020798 0.0652446 0.0167707 -0.144826 0.0708208 0.0172782 
-0.0954029 0.0844484 0.0176238 -0.131143 0.0888802 0.0219601 -0.113089 0.0549915 0.0236752 
-0.106674 0.0896015 0.0267745 -0.101527 0.149945 0.0265553 -0.120258 0.0824874 0.0314313 
-0.0416127 0.0955159 0.035507 -0.0859007 0.135528 0.0337176 -0.091305 0.0845421 0.0421959 
-0.0249249 0.0792387 0.0380682 -0.0140899 0.080477 0.0421457 -0.0735138 0.129306 0.0450829 
-0.111545 0.140696 0.0432264 -0.139357 0.189546 0.0433169 -0.0345424 0.060511 0.0515716 
-0.0768606 0.0717986 0.0513122 -0.054717 0.0734926 0.0477304 -0.140159 0.0782721 0.0458349 
-0.123022 0.105366 0.0460762 -0.000854769 0.119363 0.049965 -0.142645 0.142852 0.0464403 
-0.114396 0.0737745 0.0602213 -0.0440876 0.057817 0.063684 -0.0485548 0.160518 0.0656827 
-0.138757 0.0613509 0.0681849 -0.00405017 0.0930733 0.0714512 -0.076945 0.167722 0.0745407 
-0.0828571 0.0585553 0.0813175 -0.0122077 0.0610689 0.0824506 -0.139413 0.0749178 0.080936 
-0.128618 0.127572 0.0754668 -0.118184 0.0653958 0.0871334 -0.0371385 0.066674 0.0856982 
-0.0405391 0.083207 0.0885734 -0.0157785 0.114016 0.0884439 -0.123725 0.0710024 0.0967024 
-0.111033 0.0969689 0.0998225 -0.0306239 0.146914 0.0995004 -0.0496897 0.17455 0.100706 
-0.0485385 0.072717 0.107008 -0.00726986 0.0886276 0.112418 -0.127133 0.113622 0.109418 
-0.0671374 0.176891 0.118956 -0.00819008 0.0556386 0.121544 -0.0992526 0.160469 0.126565 
-0.119698 0.060041 0.142382 -0.100595 0.0720565 0.141965 -0.108388 0.103585 0.136956 
-0.101059 0.116998 0.138345 -0.036361 0.199803 0.144469 -0.0830385 0.205071 -0.145345 
-0.0768613 0.205328 -0.14592 -0.0529843 0.215523 -0.145338 -0.0443524 0.215526 -0.145339 
-0.0832498 0.219366 -0.145774 -0.0770726 0.219622 -0.146349 -0.0529914 0.239435 -0.145593 
-0.0443594 0.239438 -0.145594 -0.0763745 0.205808 -0.139743 -0.0825517 0.205552 -0.139168 
-0.0529837 0.215651 -0.136706 -0.0443516 0.215654 -0.136707 -0.0765858 0.220103 -0.140172 
-0.082763 0.219846 -0.139597 -0.0529907 0.239563 -0.136961 -0.0443587 0.239566 -0.136962 
-0.135187 0.263304 -0.139418 -0.119485 0.263304 -0.139418 -0.135187 0.315964 -0.139418 
-0.119485 0.315964 -0.139418 -0.123073 0.346236 -0.13539 -0.0987906 0.346263 -0.13539 
-0.120056 0.383108 -0.127578 -0.0999055 0.383005 -0.127497 -0.135187 0.263304 -0.123716 
-0.119485 0.263304 -0.123716 -0.135187 0.315964 -0.123716 -0.119485 0.315964 -0.123716 
-0.0919276 0.224195 -0.114101 -0.0794183 0.224257 -0.114101 -0.0920176 0.261832 -0.11402 
-0.0795083 0.261894 -0.11402 -0.0468405 0.27441 -0.112239 -0.0285444 0.27441 -0.112239 
-0.0468405 0.337769 -0.112239 -0.0285444 0.337769 -0.112239 -0.123073 0.346392 -0.111107 
-0.0987904 0.346419 -0.111108 -0.11992 0.38304 -0.107242 -0.0999411 0.382945 -0.10724 
-0.0919275 0.224139 -0.101592 -0.0794183 0.224201 -0.101592 -0.0920175 0.261776 -0.101511 
-0.0795084 0.261838 -0.101511 -0.0464151 0.214701 -0.091924 -0.0272329 0.209085 -0.0946497 
-0.0201226 0.209091 -0.0946685 -0.0272418 0.226596 -0.0943658 -0.0201315 0.226602 -0.0943846 
-0.0458353 0.240421 -0.0913539 -0.0760704 0.253285 -0.0940073 -0.0619647 0.253285 -0.0939991 
-0.0948929 0.272039 -0.0975571 -0.0775946 0.272039 -0.0975571 -0.0468405 0.27441 -0.0939425 
-0.0285444 0.27441 -0.0939425 -0.0674762 0.293986 -0.0923424 -0.055985 0.292541 -0.0973253 
-0.0406059 0.287165 -0.0956703 -0.0760706 0.299362 -0.0940054 -0.0948929 0.331283 -0.0975571 
-0.0775946 0.331283 -0.0975571 -0.0468405 0.337769 -0.0939425 -0.0285444 0.337769 -0.0939425 
-0.0614961 0.361227 -0.0956849 -0.0406059 0.361227 -0.0956849 -0.0373501 0.214089 -0.0911166 
-0.0272075 0.208838 -0.0875397 -0.0200972 0.208844 -0.0875585 -0.0272164 0.22635 -0.0872558 
-0.0201061 0.226356 -0.0872746 -0.0367702 0.239809 -0.0905466 -0.0560729 0.271288 -0.0863082 
-0.0832307 0.289388 -0.0895207 -0.0738275 0.332139 -0.0864971 -0.0472299 0.214103 -0.0828589 
-0.0381648 0.213491 -0.0820516 -0.04665 0.239823 -0.0822889 -0.037585 0.239211 -0.0814815 
-0.092035 0.253458 -0.0799089 -0.0798967 0.253635 -0.0784501 -0.0739116 0.253107 -0.0813604 
-0.061973 0.253284 -0.0798936 -0.0948929 0.272039 -0.0802588 -0.0775946 0.272039 -0.0802588 
-0.125603 0.284616 -0.0810664 -0.105311 0.284622 -0.0813231 -0.0666184 0.281222 -0.0766386 
-0.0521965 0.293307 -0.0800547 -0.0261242 0.289211 -0.076397 -0.00563318 0.289058 -0.0762708 
-0.092035 0.300358 -0.0799089 -0.0777299 0.300358 -0.0799089 -0.0619731 0.299361 -0.0798917 
-0.0948929 0.331283 -0.0802588 -0.0775946 0.331283 -0.0802588 -0.0654296 0.326051 -0.0812703 
-0.125612 0.356204 -0.0810904 -0.10532 0.35621 -0.0813472 -0.0258988 0.361622 -0.0765638 
-0.00540773 0.361469 -0.0764377 -0.0737216 0.271411 -0.068562 -0.0560242 0.27145 -0.0686108 
-0.0406059 0.287181 -0.0747792 -0.0737788 0.332301 -0.0687998 -0.0560814 0.33234 -0.0688485 
-0.0614961 0.361233 -0.0747957 -0.0406059 0.361233 -0.0747957 -0.092035 0.253458 -0.0656038 
-0.0777299 0.253458 -0.0656038 -0.125346 0.284632 -0.0607749 -0.105054 0.284639 -0.0610317 
-0.00248558 0.281712 -0.0640417 -0.0637071 0.293863 -0.0602588 -0.0422182 0.293863 -0.0602588 
-0.092035 0.300358 -0.0656038 -0.0777299 0.300358 -0.0656038 -0.125355 0.35622 -0.060799 
-0.105064 0.356227 -0.0610557 -0.0223864 0.351648 -0.0641841 -0.00249415 0.351654 -0.0640871 
-0.0637071 0.370389 -0.0602588 -0.0422182 0.370389 -0.0602588 -0.0919319 0.274653 -0.0599202 
-0.0732367 0.274653 -0.0599202 -0.020281 0.279688 -0.0600629 -0.0262504 0.289326 -0.0559059 
-0.00785625 0.291191 -0.0598555 -0.0919319 0.339666 -0.0599345 -0.0732367 0.339666 -0.0599345 
-0.026025 0.361736 -0.0560728 -0.00553394 0.361582 -0.0559466 -0.1121 0.259626 -0.0404509 
-0.0965974 0.259626 -0.0404509 -0.136631 0.274829 -0.039841 -0.118534 0.274829 -0.039841 
-0.0919319 0.274671 -0.0412243 -0.0732367 0.274671 -0.0412243 -0.0224749 0.281736 -0.0442462 
-0.00258231 0.281743 -0.0441494 -0.0637071 0.293863 -0.03877 -0.0422182 0.293863 -0.03877 
-0.1121 0.311464 -0.0404509 -0.0965974 0.311464 -0.0404509 -0.136631 0.337362 -0.0398403 
-0.118534 0.337362 -0.0398403 -0.0919319 0.339668 -0.04124 -0.0732367 0.339668 -0.04124 
-0.0224834 0.35168 -0.0442915 -0.00259085 0.351685 -0.0441948 -0.0637071 0.370389 -0.03877 
-0.0422182 0.370389 -0.03877 -0.0260209 0.238595 -0.0351354 -0.0250556 0.278621 -0.0340566 
-0.0560854 0.252498 -0.0270134 -0.0415808 0.252498 -0.0270134 -0.1121 0.259626 -0.0249485 
-0.0965974 0.259626 -0.0249485 -0.0589238 0.257544 -0.0258393 -0.0434213 0.257705 -0.0258117 
-0.0260435 0.285184 -0.0291601 -0.0560854 0.300221 -0.0270134 -0.0415808 0.300221 -0.0270134 
-0.0590726 0.309441 -0.0258118 -0.0435703 0.309483 -0.0258393 -0.1121 0.311464 -0.0249485 
-0.0965974 0.311464 -0.0249485 -0.0277351 0.356549 -0.0235585 -0.0260467 0.237247 -0.0220296 
-0.136631 0.274825 -0.0217444 -0.118534 0.274825 -0.0217444 -0.0251422 0.277179 -0.0209512 
-0.0078503 0.284865 -0.0218536 -0.136631 0.337365 -0.0217438 -0.118534 0.337365 -0.0217438 
[...]
POINT_DATA 1191
FIELD FieldData 8
id 1 1191 int
3781 3801 3749 3894 3745 3730 3789 3994 3744 
3970 2648 3927 2739 2901 3917 3937 3359 3023 
3952 3858 3738 2755 3785 3823 3296 3981 3024 
3931 3685 3852 3908 3180 3844 3773 3932 3808 
3966 3586 3987 3830 3960 3360 3877 3903 3805 
3716 3943 3135 3242 3961 3896 3244 3951 3243 
3731 3809 3918 3727 3757 2962 3939 3758 2824 
3714 3814 3920 3873 3953 3995 2749 3879 3885 
3853 3938 3787 3815 3182 3975 3297 2961 2484 
3746 3919 3779 3971 3786 3831 3925 2482 3962 
2902 3782 3982 3720 3847 3688 3906 3825 3836 
3950 3988 3803 3954 3686 3775 3940 3587 3996 
2823 3728 3747 3911 3788 3854 3955 3719 3909 
3631 3406 3765 3760 3461 3761 3768 3871 3864 
3910 3863 2550 3968 3325 3721 3941 2509 3997 
3136 3754 3776 3963 3977 3632 3689 3729 3875 
3956 4879 4866 4870 4794 4798 4868 4872 4796 
4800 4871 4867 4795 4799 4865 4869 4797 4793 
4442 4446 4444 4448 4018 4022 4020 4024 4443 
4447 4445 4441 4690 4694 4692 4696 4226 4230 
4228 4232 4019 4023 4021 4017 4691 4695 4693 
4689 4786 4850 4854 4852 4856 4788 4602 4606 
4330 4334 4227 4231 4608 4042 4046 4604 4332 
4336 4229 4225 4044 4048 4790 4851 4855 4853 
4849 4792 4286 4605 4284 4787 4791 4789 4785 
4594 4598 4603 4607 4331 4335 4084 4088 4282 
4043 4058 4062 4596 4600 4601 4333 4329 4288 
4086 4090 4060 4064 4283 4287 4047 4285 4281 
4045 4041 4595 4599 4085 4089 4142 4026 4030 
4597 4593 4087 4091 4140 4144 4028 4032 4194 
4198 4138 4059 4063 4196 4200 4061 4057 4475 
4479 4258 4262 4195 4199 4139 4143 4027 4031 
4477 4481 4260 4264 4197 4193 4141 4137 4029 
4025 4658 4660 4578 4582 4476 4480 4483 4487 
4092 4580 4584 4485 4474 4478 4482 4094 4659 
4259 4263 4661 4096 4261 4257 4074 4095 4579 
4583 4076 4093 4581 4577 4078 4080 4075 4073 
4077 4082 4079 4083 4081 4362 4366 4364 4368 
4674 4678 4484 4488 4346 4350 4162 4166 4676 
4680 4486 4473 4348 4352 4164 4168 4363 4367 
4365 4361 4012 4634 4638 4675 4679 4347 4314 
4351 4636 4318 4640 4677 4673 4349 4345 4316 
4320 4354 4266 4270 4146 4150 4163 4167 4034 
4038 4268 4356 4272 4165 4161 4148 4152 4036 
4040 4008 4730 4734 4635 4639 4498 4732 4315 
4736 4637 4633 4319 4355 4317 4313 4068 4004 
4002 4115 4154 4119 4158 4035 4500 4269 4357 
4156 4160 4117 4121 4072 4006 4770 4774 4731 
4735 4772 4776 4499 4733 4729 4267 4271 4210 
4214 4147 4127 4151 4066 4070 4071 4039 4265 
4212 4216 4125 4149 4114 4145 4005 4001 4037 
4033 4771 4775 4773 4769 4530 4534 4387 4391 
4234 4238 4159 4116 4120 4067 4123 4389 4536 
4393 4501 4236 4240 4118 4122 4069 4065 4418 
4422 4211 4215 4155 4124 4532 4128 4420 4424 
4213 4209 4157 4153 4003 4007 4450 4454 4586 
4590 4531 4535 4388 4392 4235 4290 4239 4294 
4178 4182 4588 4452 4456 4592 4533 4529 4394 
4292 4237 4296 4233 4180 4184 4126 4113 4587 
4591 4342 4589 4585 4344 4451 4455 4555 4559 
4419 4423 4395 4338 4399 4179 4453 4449 4390 
4557 4561 4397 4386 4421 4417 4340 4611 4615 
4506 4510 4291 4295 4183 4613 4508 4512 4293 
4289 4181 4177 4623 4722 4726 4738 4742 4556 
4560 4740 4744 4610 4724 4728 4339 4400 4343 
4617 4396 4558 4562 4398 4385 4341 4337 4619 
4826 4830 4621 4739 4743 4612 4616 4507 4511 
4741 4737 4614 4618 4050 4509 4505 4052 4827 
4831 4874 4878 4810 4814 4876 4880 4624 4832 
4723 4727 4828 4812 4816 4563 4567 4609 4725 
4721 4565 4620 4811 4877 4815 4873 4829 4825 
4622 4813 4809 4564 4568 4566 4553 4051 4554 
4055 4053 4875 3899 3849 3161 3440 4898 4902 
3818 3838 3811 3876 4903 4899 3405 3972 3934 
3755 3945 3762 3860 3784 3900 3726 3985 3957 
3025 3717 3964 3978 2591 2481 3778 3741 2927 
2989 3922 3856 3796 3867 3711 3806 3888 3869 
3441 2867 3737 2483 3723 3819 3712 3850 3797 
3881 3665 3324 3851 3766 3208 3162 3614 3691 
3812 3840 2751 3262 2748 3770 3889 3890 3771 
3914 3991 2690 3791 3946 2750 3777 3442 3732 
3870 3668 3774 3799 3385 3764 3263 3742 3820 
3718 3763 3999 3828 3913 3915 3692 3916 2963 
3923 2790 3993 3979 3974 3998 3667 3924 3613 
2928 3772 3790 3947 3750 3810 3739 3715 3892 
3857 3835 3751 3298 3846 3443 3935 3861 3733 
3833 3958 3983 3926 3800 3936 3798 2753 3872 
3967 3326 2868 3725 3902 3843 3792 3883 3930 
3444 3969 3693 3980 3848 4904 4900 4714 4718 
4716 4720 4897 4901 4715 4719 4717 4713 4626 
4630 4628 4632 4834 4838 4836 4840 4515 4519 
4517 4521 4835 4839 4837 4833 4627 4631 4402 
4406 4629 4625 4404 4408 4516 4520 4518 4522 
4523 4527 4525 4514 4702 4698 4403 4407 4700 
4704 4405 4401 4699 4703 4524 4528 4701 4697 
4526 4513 4754 4758 4756 4760 4426 4430 4428 
4432 4755 4759 4757 4753 4427 4490 4431 4494 
4370 4374 4298 4302 4492 4496 4429 4425 4372 
4376 4300 4304 4890 4894 4892 4896 4762 4766 
4764 4768 4491 4495 4202 4206 4493 4489 4204 
4208 4891 4895 4893 4889 4767 4686 4682 4546 
4550 4458 4462 4371 4375 4684 4688 4299 4303 
4548 4552 4464 4460 4373 4369 4301 4297 4763 
4761 4765 4662 4683 4687 4666 4670 4547 4551 
4459 4463 4664 4203 4685 4207 4681 4668 4672 
4549 4545 4461 4457 4205 4201 4858 4862 4860 
4864 4859 4863 4861 4857 4663 4667 4671 4642 
4646 4657 4669 4665 4644 4648 4643 4647 4645 
4641 4882 4883 4886 4887 4884 4885 4888 4881 
4802 4806 4804 4808 4650 4654 4652 4656 4803 
4807 4805 4801 4651 4655 4306 4310 4653 4649 
4308 4312 4010 4014 4016 4746 4750 4378 4382 
4748 4752 4380 4384 4747 4751 4706 4710 4749 
4745 4358 4540 4307 4311 4708 4712 4360 4309 
4192 4305 4379 4383 4502 4186 4190 4381 4377 
4188 4011 4015 4013 4009 4538 4542 4707 4711 
4705 4243 4247 4359 4544 4709 4103 4504 4353 
4185 4324 4328 4245 4249 4101 4105 4503 4322 
4326 4099 4189 4539 4543 4187 4191 4244 4248 
4541 4537 4497 4246 4250 4410 4414 4323 4327 
4100 4104 4412 4416 4325 4321 4102 4106 4434 
4438 4411 4415 4436 4440 4413 4409 4255 4130 
4134 4433 4253 4242 4132 4136 4822 4818 4824 
4820 4435 4439 4218 4222 4251 4170 4174 4437 
4220 4224 4172 4176 4823 4819 4778 4782 4817 
4821 4780 4784 4466 4470 4252 4256 4131 4135 
4468 4472 4254 4241 4133 4129 4842 4846 4779 
4783 4844 4848 4777 4274 4278 4570 4574 4219 
4223 4107 4111 4054 4572 4576 4276 4280 4221 
4217 4056 4109 4098 4843 4847 4845 4841 4781 
4171 4175 4173 4169 4275 4279 4467 4471 4571 
4575 4108 4112 4277 4573 4569 4469 4465 4273 
4110 4097 4049 
type 1 1191 int
2 2 2 2 2 2 2 2 2 
2 2 2 2 2 2 2 2 2 
2 2 2 2 2 2 2 2 2 
2 2 2 2 2 2 2 2 2 
2 2 2 2 2 2 2 2 2 
2 2 2 2 2 2 2 2 2 
2 2 2 2 2 2 2 2 2 
2 2 2 2 2 2 2 2 2 
2 2 2 2 2 2 2 2 2 
2 2 2 2 2 2 2 2 2 
2 2 2 2 2 2 2 2 2 
2 2 2 2 2 2 2 2 2 
2 2 2 2 2 2 2 2 2 
2 2 2 2 2 2 2 2 2 
2 2 2 2 2 2 2 2 2 
2 2 2 2 2 2 2 2 2 
2 2 2 2 2 2 2 2 2 
2 2 2 2 2 2 2 2 2 
2 2 2 2 2 2 2 2 2 
2 2 2 2 2 2 2 2 2 
2 2 2 2 2 2 2 2 2 
2 2 2 2 2 2 2 2 2 
2 2 2 2 2 2 2 2 2 
2 2 2 2 2 2 2 2 2 
2 2 2 2 2 2 2 2 2 
2 2 2 2 2 2 2 2 2 
2 2 2 2 2 2 2 2 2 
2 2 2 2 2 2 2 2 2 
2 2 2 2 2 2 2 2 2 
2 2 2 2 2 2 2 2 2 
2 2 2 2 2 2 2 2 2 
2 2 2 2 2 2 2 2 2 
2 2 2 2 2 2 2 2 2 
2 2 2 2 2 2 2 2 2 
2 2 2 2 2 2 2 2 2 
2 2 2 2 2 2 2 2 2 
2 2 2 2 2 2 2 2 2 
2 2 2 2 2 2 2 2 2 
2 2 2 2 2 2 2 2 2 
2 2 2 2 2 2 2 2 2 
2 2 2 2 2 2 2 2 2 
2 2 2 2 2 2 2 2 2 
2 2 2 2 2 2 2 2 2 
2 2 2 2 2 2 2 2 2 
2 2 2 2 2 2 2 2 2 
2 2 2 2 2 2 2 2 2 
2 2 2 2 2 2 2 2 2 
2 2 2 2 2 2 2 2 2 
2 2 2 2 2 2 2 2 2 
2 2 2 2 2 2 2 2 2 
2 2 2 2 2 2 2 2 2 
2 2 2 2 2 2 2 2 2 
2 2 2 2 2 2 2 2 2 
2 2 2 2 2 2 2 2 2 
2 2 2 2 2 2 2 2 2 
2 2 2 2 2 2 2 2 2 
2 2 2 2 2 2 2 2 2 
2 2 2 2 2 2 2 2 2 
2 2 2 2 2 2 2 2 2 
2 2 2 2 2 2 2 2 2 
2 2 2 2 2 2 2 2 2 
2 2 2 2 2 2 2 2 2 
2 2 2 2 2 2 2 2 2 
2 2 2 2 2 2 2 2 2 
2 2 2 2 2 2 2 2 2 
2 2 2 2 2 2 2 2 2 
2 2 2 2 2 2 2 2 2 
2 2 2 2 2 2 2 2 2 
2 2 2 2 2 2 2 2 2 
2 2 2 2 2 2 2 2 2 
2 2 2 2 2 2 2 2 2 
2 2 2 2 2 2 2 2 2 
2 2 2 2 2 2 2 2 2 
2 2 2 2 2 2 2 2 2 
2 2 2 2 2 2 2 2 2 
2 2 2 2 2 2 2 2 2 
2 2 2 2 2 2 2 2 2 
2 2 2 2 2 2 2 2 2 
2 2 2 2 2 2 2 2 2 
2 2 2 2 2 2 2 2 2 
2 2 2 2 2 2 2 2 2 
2 2 2 2 2 2 2 2 2 
2 2 2 2 2 2 2 2 2 
2 2 2 2 2 2 2 2 2 
2 2 2 2 2 2 2 2 2 
2 2 2 2 2 2 2 2 2 
2 2 2 2 2 2 2 2 2 
2 2 2 2 2 2 2 2 2 
2 2 2 2 2 2 2 2 2 
2 2 2 2 2 2 2 2 2 
2 2 2 2 2 2 2 2 2 
2 2 2 2 2 2 2 2 2 
2 2 2 2 2 2 2 2 2 
2 2 2 2 2 2 2 2 2 
2 2 2 2 2 2 2 2 2 
2 2 2 2 2 2 2 2 2 
2 2 2 2 2 2 2 2 2 
2 2 2 2 2 2 2 2 2 
2 2 2 2 2 2 2 2 2 
2 2 2 2 2 2 2 2 2 
2 2 2 2 2 2 2 2 2 
2 2 2 2 2 2 2 2 2 
2 2 2 2 2 2 2 2 2 
2 2 2 2 2 2 2 2 2 
2 2 2 2 2 2 2 2 2 
2 2 2 2 2 2 2 2 2 
2 2 2 2 2 2 2 2 2 
2 2 2 2 2 2 2 2 2 
2 2 2 2 2 2 2 2 2 
2 2 2 2 2 2 2 2 2 
2 2 2 2 2 2 2 2 2 
2 2 2 2 2 2 2 2 2 
2 2 2 2 2 2 2 2 2 
2 2 2 2 2 2 2 2 2 
2 2 2 2 2 2 2 2 2 
2 2 2 2 2 2 2 2 2 
2 2 2 2 2 2 2 2 2 
2 2 2 2 2 2 2 2 2 
2 2 2 2 2 2 2 2 2 
2 2 2 2 2 2 2 2 2 
2 2 2 2 2 2 2 2 2 
2 2 2 2 2 2 2 2 2 
2 2 2 2 2 2 2 2 2 
2 2 2 2 2 2 2 2 2 
2 2 2 2 2 2 2 2 2 
2 2 2 2 2 2 2 2 2 
2 2 2 2 2 2 2 2 2 
2 2 2 2 2 2 2 2 2 
2 2 2 2 2 2 2 2 2 
2 2 2 2 2 2 2 2 2 
2 2 2 2 2 2 2 2 2 
2 2 2 2 2 2 2 2 2 
2 2 2 
i 3 1191 int
0 0 0 0 0 0 0 0 0 
0 0 0 0 0 0 0 0 0 
0 0 0 0 0 0 0 0 0 
0 0 0 0 0 0 0 0 0 
0 0 0 0 0 0 0 0 0 
0 0 0 0 0 0 0 0 0 
0 0 0 0 0 0 0 0 0 
0 0 0 0 0 0 0 0 0 
0 0 0 0 0 0 0 0 0 
0 0 0 0 0 0 0 0 0 
0 0 0 0 0 0 0 0 0 
0 0 0 0 0 0 0 0 0 
0 0 0 0 0 0 0 0 0 
0 0 0 0 0 0 0 0 0 
0 0 0 0 0 0 0 0 0 
0 0 0 0 0 0 0 0 0 
0 0 0 0 0 0 0 0 0 
0 0 0 0 0 0 0 0 0 
0 0 0 0 0 0 0 0 0 
0 0 0 0 0 0 0 0 0 
0 0 0 0 0 0 0 0 0 
0 0 0 0 0 0 0 0 0 
0 0 0 0 0 0 0 0 0 
0 0 0 0 0 0 0 0 0 
0 0 0 0 0 0 0 0 0 
0 0 0 0 0 0 0 0 0 
0 0 0 0 0 0 0 0 0 
0 0 0 0 0 0 0 0 0 
0 0 0 0 0 0 0 0 0 
0 0 0 0 0 0 0 0 0 
0 0 0 0 0 0 0 0 0 
0 0 0 0 0 0 0 0 0 
0 0 0 0 0 0 0 0 0 
0 0 0 0 0 0 0 0 0 
0 0 0 0 0 0 0 0 0 
0 0 0 0 0 0 0 0 0 
0 0 0 0 0 0 0 0 0 
0 0 0 0 0 0 0 0 0 
0 0 0 0 0 0 0 0 0 
0 0 0 0 0 0 0 0 0 
0 0 0 0 0 0 0 0 0 
0 0 0 0 0 0 0 0 0 
0 0 0 0 0 0 0 0 0 
0 0 0 0 0 0 0 0 0 
0 0 0 0 0 0 0 0 0 
0 0 0 0 0 0 0 0 0 
0 0 0 0 0 0 0 0 0 
0 0 0 0 0 0 0 0 0 
0 0 0 0 0 0 0 0 0 
0 0 0 0 0 0 0 0 0 
0 0 0 0 0 0 0 0 0 
0 0 0 0 0 0 0 0 0 
0 0 0 0 0 0 0 0 0 
0 0 0 0 0 0 0 0 0 
0 0 0 0 0 0 0 0 0 
0 0 0 0 0 0 0 0 0 
0 0 0 0 0 0 0 0 0 
0 0 0 0 0 0 0 0 0 
0 0 0 0 0 0 0 0 0 
0 0 0 0 0 0 0 0 0 
0 0 0 0 0 0 0 0 0 
0 0 0 0 0 0 0 0 0 
0 0 0 0 0 0 0 0 0 
0 0 0 0 0 0 0 0 0 
0 0 0 0 0 0 0 0 0 
0 0 0 0 0 0 0 0 0 
0 0 0 0 0 0 0 0 0 
0 0 0 0 0 0 0 0 0 
0 0 0 0 0 0 0 0 0 
0 0 0 0 0 0 0 0 0 
0 0 0 0 0 0 0 0 0 
0 0 0 0 0 0 0 0 0 
0 0 0 0 0 0 0 0 0 
0 0 0 0 0 0 0 0 0 
0 0 0 0 0 0 0 0 0 
0 0 0 0 0 0 0 0 0 
0 0 0 0 0 0 0 0 0 
0 0 0 0 0 0 0 0 0 
0 0 0 0 0 0 0 0 0 
0 0 0 0 0 0 0 0 0 
0 0 0 0 0 0 0 0 0 
0 0 0 0 0 0 0 0 0 
0 0 0 0 0 0 0 0 0 
0 0 0 0 0 0 0 0 0 
0 0 0 0 0 0 0 0 0 
0 0 0 0 0 0 0 0 0 
0 0 0 0 0 0 0 0 0 
0 0 0 0 0 0 0 0 0 
0 0 0 0 0 0 0 0 0 
0 0 0 0 0 0 0 0 0 
0 0 0 0 0 0 0 0 0 
0 0 0 0 0 0 0 0 0 
0 0 0 0 0 0 0 0 0 
0 0 0 0 0 0 0 0 0 
0 0 0 0 0 0 0 0 0 
0 0 0 0 0 0 0 0 0 
0 0 0 0 0 0 0 0 0 
0 0 0 0 0 0 0 0 0 
0 0 0 0 0 0 0 0 0 
0 0 0 0 0 0 0 0 0 
0 0 0 0 0 0 0 0 0 
0 0 0 0 0 0 0 0 0 
0 0 0 0 0 0 0 0 0 
0 0 0 0 0 0 0 0 0 
0 0 0 0 0 0 0 0 0 
0 0 0 0 0 0 0 0 0 
0 0 0 0 0 0 0 0 0 
0 0 0 0 0 0 0 0 0 
0 0 0 0 0 0 0 0 0 
0 0 0 0 0 0 0 0 0 
0 0 0 0 0 0 0 0 0 
0 0 0 0 0 0 0 0 0 
0 0 0 0 0 0 0 0 0 
0 0 0 0 0 0 0 0 0 
0 0 0 0 0 0 0 0 0 
0 0 0 0 0 0 0 0 0 
0 0 0 0 0 0 0 0 0 
0 0 0 0 0 0 0 0 0 
0 0 0 0 0 0 0 0 0 
0 0 0 0 0 0 0 0 0 
0 0 0 0 0 0 0 0 0 
0 0 0 0 0 0 0 0 0 
0 0 0 0 0 0 0 0 0 
0 0 0 0 0 0 0 0 0 
0 0 0 0 0 0 0 0 0 
0 0 0 0 0 0 0 0 0 
0 0 0 0 0 0 0 0 0 
0 0 0 0 0 0 0 0 0 
0 0 0 0 0 0 0 0 0 
0 0 0 0 0 0 0 0 0 
0 0 0 0 0 0 0 0 0 
0 0 0 0 0 0 0 0 0 
0 0 0 0 0 0 0 0 0 
0 0 0 0 0 0 0 0 0 
0 0 0 0 0 0 0 0 0 
0 0 0 0 0 0 0 0 0 
0 0 0 0 0 0 0 0 0 
0 0 0 0 0 0 0 0 0 
0 0 0 0 0 0 0 0 0 
0 0 0 0 0 0 0 0 0 
0 0 0 0 0 0 0 0 0 
0 0 0 0 0 0 0 0 0 
0 0 0 0 0 0 0 0 0 
0 0 0 0 0 0 0 0 0 
0 0 0 0 0 0 0 0 0 
0 0 0 0 0 0 0 0 0 
0 0 0 0 0 0 0 0 0 
0 0 0 0 0 0 0 0 0 
0 0 0 0 0 0 0 0 0 
0 0 0 0 0 0 0 0 0 
0 0 0 0 0 0 0 0 0 
0 0 0 0 0 0 0 0 0 
0 0 0 0 0 0 0 0 0 
0 0 0 0 0 0 0 0 0 
0 0 0 0 0 0 0 0 0 
0 0 0 0 0 0 0 0 0 
0 0 0 0 0 0 0 0 0 
0 0 0 0 0 0 0 0 0 
0 0 0 0 0 0 0 0 0 
0 0 0 0 0 0 0 0 0 
0 0 0 0 0 0 0 0 0 
0 0 0 0 0 0 0 0 0 
0 0 0 0 0 0 0 0 0 
0 0 0 0 0 0 0 0 0 
0 0 0 0 0 0 0 0 0 
0 0 0 0 0 0 0 0 0 
0 0 0 0 0 0 0 0 0 
0 0 0 0 0 0 0 0 0 
0 0 0 0 0 0 0 0 0 
0 0 0 0 0 0 0 0 0 
0 0 0 0 0 0 0 0 0 
0 0 0 0 0 0 0 0 0 
0 0 0 0 0 0 0 0 0 
0 0 0 0 0 0 0 0 0 
0 0 0 0 0 0 0 0 0 
0 0 0 0 0 0 0 0 0 
0 0 0 0 0 0 0 0 0 
0 0 0 0 0 0 0 0 0 
0 0 0 0 0 0 0 0 0 
0 0 0 0 0 0 0 0 0 
0 0 0 0 0 0 0 0 0 
0 0 0 0 0 0 0 0 0 
0 0 0 0 0 0 0 0 0 
0 0 0 0 0 0 0 0 0 
0 0 0 0 0 0 0 0 0 
0 0 0 0 0 0 0 0 0 
0 0 0 0 0 0 0 0 0 
0 0 0 0 0 0 0 0 0 
0 0 0 0 0 0 0 0 0 
0 0 0 0 0 0 0 0 0 
0 0 0 0 0 0 0 0 0 
0 0 0 0 0 0 0 0 0 
0 0 0 0 0 0 0 0 0 
0 0 0 0 0 0 0 0 0 
0 0 0 0 0 0 0 0 0 
0 0 0 0 0 0 0 0 0 
0 0 0 0 0 0 0 0 0 
0 0 0 0 0 0 0 0 0 
0 0 0 0 0 0 0 0 0 
0 0 0 0 0 0 0 0 0 
0 0 0 0 0 0 0 0 0 
0 0 0 0 0 0 0 0 0 
0 0 0 0 0 0 0 0 0 
0 0 0 0 0 0 0 0 0 
0 0 0 0 0 0 0 0 0 
0 0 0 0 0 0 0 0 0 
0 0 0 0 0 0 0 0 0 
0 0 0 0 0 0 0 0 0 
0 0 0 0 0 0 0 0 0 
0 0 0 0 0 0 0 0 0 
0 0 0 0 0 0 0 0 0 
0 0 0 0 0 0 0 0 0 
0 0 0 0 0 0 0 0 0 
0 0 0 0 0 0 0 0 0 
0 0 0 0 0 0 0 0 0 
0 0 0 0 0 0 0 0 0 
0 0 0 0 0 0 0 0 0 
0 0 0 0 0 0 0 0 0 
0 0 0 0 0 0 0 0 0 
0 0 0 0 0 0 0 0 0 
0 0 0 0 0 0 0 0 0 
0 0 0 0 0 0 0 0 0 
0 0 0 0 0 0 0 0 0 
0 0 0 0 0 0 0 0 0 
0 0 0 0 0 0 0 0 0 
0 0 0 0 0 0 0 0 0 
0 0 0 0 0 0 0 0 0 
0 0 0 0 0 0 0 0 0 
0 0 0 0 0 0 0 0 0 
0 0 0 0 0 0 0 0 0 
0 0 0 0 0 0 0 0 0 
0 0 0 0 0 0 0 0 0 
0 0 0 0 0 0 0 0 0 
0 0 0 0 0 0 0 0 0 
0 0 0 0 0 0 0 0 0 
0 0 0 0 0 0 0 0 0 
0 0 0 0 0 0 0 0 0 
0 0 0 0 0 0 0 0 0 
0 0 0 0 0 0 0 0 0 
0 0 0 0 0 0 0 0 0 
0 0 0 0 0 0 0 0 0 
0 0 0 0 0 0 0 0 0 
0 0 0 0 0 0 0 0 0 
0 0 0 0 0 0 0 0 0 
0 0 0 0 0 0 0 0 0 
0 0 0 0 0 0 0 0 0 
0 0 0 0 0 0 0 0 0 
0 0 0 0 0 0 0 0 0 
0 0 0 0 0 0 0 0 0 
0 0 0 0 0 0 0 0 0 
0 0 0 0 0 0 0 0 0 
0 0 0 0 0 0 0 0 0 
0 0 0 0 0 0 0 0 0 
0 0 0 0 0 0 0 0 0 
0 0 0 0 0 0 0 0 0 
0 0 0 0 0 0 0 0 0 
0 0 0 0 0 0 0 0 0 
0 0 0 0 0 0 0 0 0 
0 0 0 0 0 0 0 0 0 
0 0 0 0 0 0 0 0 0 
0 0 0 0 0 0 0 0 0 
0 0 0 0 0 0 0 0 0 
0 0 0 0 0 0 0 0 0 
0 0 0 0 0 0 0 0 0 
0 0 0 0 0 0 0 0 0 
0 0 0 0 0 0 0 0 0 
0 0 0 0 0 0 0 0 0 
0 0 0 0 0 0 0 0 0 
0 0 0 0 0 0 0 0 0 
0 0 0 0 0 0 0 0 0 
0 0 0 0 0 0 0 0 0 
0 0 0 0 0 0 0 0 0 
0 0 0 0 0 0 0 0 0 
0 0 0 0 0 0 0 0 0 
0 0 0 0 0 0 0 0 0 
0 0 0 0 0 0 0 0 0 
0 0 0 0 0 0 0 0 0 
0 0 0 0 0 0 0 0 0 
0 0 0 0 0 0 0 0 0 
0 0 0 0 0 0 0 0 0 
0 0 0 0 0 0 0 0 0 
0 0 0 0 0 0 0 0 0 
0 0 0 0 0 0 0 0 0 
0 0 0 0 0 0 0 0 0 
0 0 0 0 0 0 0 0 0 
0 0 0 0 0 0 0 0 0 
0 0 0 0 0 0 0 0 0 
0 0 0 0 0 0 0 0 0 
0 0 0 0 0 0 0 0 0 
0 0 0 0 0 0 0 0 0 
0 0 0 0 0 0 0 0 0 
0 0 0 0 0 0 0 0 0 
0 0 0 0 0 0 0 0 0 
0 0 0 0 0 0 0 0 0 
0 0 0 0 0 0 0 0 0 
0 0 0 0 0 0 0 0 0 
0 0 0 0 0 0 0 0 0 
0 0 0 0 0 0 0 0 0 
0 0 0 0 0 0 0 0 0 
0 0 0 0 0 0 0 0 0 
0 0 0 0 0 0 0 0 0 
0 0 0 0 0 0 0 0 0 
0 0 0 0 0 0 0 0 0 
0 0 0 0 0 0 0 0 0 
0 0 0 0 0 0 0 0 0 
0 0 0 0 0 0 0 0 0 
0 0 0 0 0 0 0 0 0 
0 0 0 0 0 0 0 0 0 
0 0 0 0 0 0 0 0 0 
0 0 0 0 0 0 0 0 0 
0 0 0 0 0 0 0 0 0 
0 0 0 0 0 0 0 0 0 
0 0 0 0 0 0 0 0 0 
0 0 0 0 0 0 0 0 0 
0 0 0 0 0 0 0 0 0 
0 0 0 0 0 0 0 0 0 
0 0 0 0 0 0 0 0 0 
0 0 0 0 0 0 0 0 0 
0 0 0 0 0 0 0 0 0 
0 0 0 0 0 0 0 0 0 
0 0 0 0 0 0 0 0 0 
0 0 0 0 0 0 0 0 0 
0 0 0 0 0 0 0 0 0 
0 0 0 0 0 0 0 0 0 
0 0 0 0 0 0 0 0 0 
0 0 0 0 0 0 0 0 0 
0 0 0 0 0 0 0 0 0 
0 0 0 0 0 0 0 0 0 
0 0 0 0 0 0 0 0 0 
0 0 0 0 0 0 0 0 0 
0 0 0 0 0 0 0 0 0 
0 0 0 0 0 0 0 0 0 
0 0 0 0 0 0 0 0 0 
0 0 0 0 0 0 0 0 0 
0 0 0 0 0 0 0 0 0 
0 0 0 0 0 0 0 0 0 
0 0 0 0 0 0 0 0 0 
0 0 0 0 0 0 0 0 0 
0 0 0 0 0 0 0 0 0 
0 0 0 0 0 0 0 0 0 
0 0 0 0 0 0 0 0 0 
0 0 0 0 0 0 0 0 0 
0 0 0 0 0 0 0 0 0 
0 0 0 0 0 0 0 0 0 
0 0 0 0 0 0 0 0 0 
0 0 0 0 0 0 0 0 0 
0 0 0 0 0 0 0 0 0 
0 0 0 0 0 0 0 0 0 
0 0 0 0 0 0 0 0 0 
0 0 0 0 0 0 0 0 0 
0 0 0 0 0 0 0 0 0 
0 0 0 0 0 0 0 0 0 
0 0 0 0 0 0 0 0 0 
0 0 0 0 0 0 0 0 0 
0 0 0 0 0 0 0 0 0 
0 0 0 0 0 0 0 0 0 
0 0 0 0 0 0 0 0 0 
0 0 0 0 0 0 0 0 0 
0 0 0 0 0 0 0 0 0 
0 0 0 0 0 0 0 0 0 
0 0 0 0 0 0 0 0 0 
0 0 0 0 0 0 0 0 0 
0 0 0 0 0 0 0 0 0 
0 0 0 0 0 0 0 0 0 
0 0 0 0 0 0 0 0 0 
0 0 0 0 0 0 0 0 0 
0 0 0 0 0 0 0 0 0 
0 0 0 0 0 0 0 0 0 
0 0 0 0 0 0 0 0 0 
0 0 0 0 0 0 0 0 0 
0 0 0 0 0 0 0 0 0 
0 0 0 0 0 0 0 0 0 
0 0 0 0 0 0 0 0 0 
0 0 0 0 0 0 0 0 0 
0 0 0 0 0 0 0 0 0 
0 0 0 0 0 0 0 0 0 
0 0 0 0 0 0 0 0 0 
0 0 0 0 0 0 0 0 0 
0 0 0 0 0 0 0 0 0 
0 0 0 0 0 0 0 0 0 
0 0 0 0 0 0 0 0 0 
0 0 0 0 0 0 0 0 0 
0 0 0 0 0 0 0 0 0 
0 0 0 0 0 0 0 0 0 
0 0 0 0 0 0 0 0 0 
0 0 0 0 0 0 0 0 0 
0 0 0 0 0 0 0 0 0 
0 0 0 0 0 0 0 0 0 
0 0 0 0 0 0 0 0 0 
0 0 0 0 0 0 0 0 0 
0 0 0 0 0 0 0 0 0 
0 0 0 0 0 0 0 0 0 
0 0 0 0 0 0 0 0 0 
0 0 0 0 0 0 0 0 0 
0 0 0 0 0 0 0 0 0 
0 0 0 0 0 0 0 0 0 
0 0 0 0 0 0 0 0 0 

v 3 1191 double
0.0080156891962 -0.0015029605931 0.004447886628 0.010048934566 -0.00070430313784 0.0034683114765 -0.15472652587 0.054371164332 0.017807489663 
0.0015701205898 -4.843480566e-05 -0.032346434743 -0.0056303209371 0.0085283445581 0.016039859049 -0.029080006669 0.04353332093 0.035337047209 
-0.084222972431 0.081829535961 -0.0015657430505 -0.015970077835 0.15166809512 0.0078683031147 0.0084999301845 0.1323890659 0.0081926522313 
0.053223610559 0.075188324127 0.0077208849171 -0.027173646627 0.011902077028 0.021408443641 -0.01040054753 0.0058004044742 0.04555054737 
0.0086390268809 0.038845535794 -0.0015567670795 0.019798951085 0.040401127349 0.0076420378047 -0.078830096885 0.05744859893 0.00019912973901 
0.00042695319134 0.13846042764 0.029105660503 -0.097613623005 0.14261836488 -0.069878233524 0.056732275107 -0.039185307936 -0.0066811744503 
-0.073359751146 0.048740936439 0.033533506534 -0.015444081516 0.16804910789 -0.083079636091 0.00030317957686 0.049567823366 -0.018354212932 
-0.0030698152518 -0.047452105946 -0.019269619845 -0.1521734376 0.090918890569 -0.019684191276 0.029483446629 0.02126726561 0.019328405917 
0.012718550083 0.067616469755 0.01425317236 0.096087284017 0.12261288527 -0.004294039915 -0.040629181533 0.011950981917 0.025322700445 
-0.055110835015 0.016838623604 0.044337729087 0.017418324533 0.057616216922 -0.030352324845 -0.024108631974 0.052866387327 -0.0092589620461 
-0.067244853967 0.04522047833 -0.011281584556 -0.005644904192 0.11634111591 0.004857108426 -0.023837693753 0.013424326694 0.030482934101 
-0.046543241901 0.073906791384 0.057776194531 -0.0032792434209 0.15987574977 -0.11366743156 -0.013011560337 0.21057775716 -0.067361238852 
-0.1632132347 0.016458060305 -0.098071338305 -0.12700203971 0.048571700113 0.064957662293 -0.031250205073 0.21919385107 0.082559184695 
-0.02568388976 0.17898130461 0.043235618101 0.039880780314 0.026113743392 0.024039611571 -0.1093329276 0.013073293453 -0.054392005946 
-0.084078667498 0.04976864582 -0.029746205785 0.035121297983 0.12847363527 0.096812815135 -0.043962486341 0.0078226513206 0.0099943416888 
0.047803103404 -0.019324961862 -0.018901646946 0.010421709988 0.032597662155 0.089304931032 0.048145546629 0.065638895238 -0.073652038648 
8.7304082862e-05 0.05658216547 0.0490846904 0.095677381331 0.0044200649861 -0.086041273012 0.042602169189 0.089323789222 -0.065956124659 
-0.011140416409 0.097767829241 -0.12921837017 0.023475480505 0.23269993324 -0.13228825416 0.070840408429 0.24857152678 -0.025740045988 
-0.10514529648 0.01736526256 0.032910920883 0.088817694295 0.1124998154 -0.053149249242 0.015727314557 0.021455075493 -0.0024677751594 
-0.023683525094 0.038479039595 0.077669425022 0.17906924697 0.04465336239 0.12954131523 -0.0039167831326 0.051254836739 -0.001557137884 
-0.016476201133 0.099454444818 -0.084306564822 0.21273066105 0.083784470045 0.0040210919325 0.092836600924 0.11632370629 -0.033720182364 
-0.12138748745 0.023556564993 -0.062933400745 0.12805066387 0.097112908791 0.070525714734 0.028538407798 0.025056636625 -0.064268107381 
-0.041178332009 0.14957725344 0.14796284926 -0.15104217532 0.21350433729 -0.08847513098 0.11675560386 0.0055103898253 0.016518092401 
0.065426130544 0.13385490915 0.035482408426 -0.033229108723 0.13146619811 -0.072439225811 -0.034575399922 0.014476296317 -0.0031718926662 
0.032153006952 0.017443458787 0.013840565836 0.031590655792 0.043572963739 -0.02529784089 0.066069911894 0.030486271706 0.011613924384 
0.0094198569489 0.15103026516 -0.022541178981 -0.044097505797 -0.017331996616 -0.013690871854 0.027032685635 0.021794619309 -0.024559164227 
0.0027558020571 0.066480200587 0.020948937278 0.0720265258 0.092481050782 0.10567728676 -0.14265671729 0.14287988695 -0.12975060637 