# vtk DataFile Version 5.1
Generated by LIGGGHTS
ASCII
DATASET POLYDATA
POINTS 421 float
-0.139174 0.0562516 -0.144736 -0.14288 0.0696999 -0.144377 -0.0979918 0.0769312 -0.144075 
-0.102452 0.0882662 -0.144142 -0.0745809 0.0886324 -0.143957 -0.05011 0.121395 -0.144142 
-0.11737 0.056105 -0.141827 -0.0705016 0.0567399 -0.141433 -0.0232312 0.0839705 -0.138382 
-0.144846 0.0583837 -0.134754 -0.134993 0.0608693 -0.132853 -0.126792 0.0592707 -0.12718 
-0.11341 0.0612593 -0.132458 -0.0468659 0.0630742 -0.130327 -0.134124 0.0769634 -0.131465 
-0.0649721 0.074447 -0.13236 -0.0332984 0.0736995 -0.129553 -0.0212862 0.106187 -0.134507 
-0.127336 0.146134 -0.131567 -0.142489 0.0555299 -0.119954 -0.115152 0.0599054 -0.121206 
-0.0758317 0.0556819 -0.125949 -0.0383497 0.068979 -0.121337 -0.117005 0.0784432 -0.124865 
-0.00796684 0.080931 -0.120386 -0.106455 0.0979628 -0.120584 -0.0234374 0.12205 -0.123623 
-0.00475852 0.0587667 -0.116079 -0.102016 0.0741007 -0.117104 -0.0654773 0.120756 -0.115801 
-0.0186032 0.0567778 -0.110088 -0.0290924 0.0632117 -0.108585 -0.0508935 0.0846585 -0.108367 
-0.00563689 0.0850869 -0.108817 -0.0808868 0.0909979 -0.1118 -0.0823378 0.148498 -0.110627 
-0.0256565 0.179938 -0.00306342 -0.0739128 0.0648797 -0.10185 -0.00820745 0.0682104 -0.103904 
-0.0993765 0.0928722 -0.105352 -0.0620738 0.0934727 -0.0999576 -0.00682252 0.100656 -0.0981483 
-0.0376925 0.166452 -0.103091 -0.081571 0.0633606 -0.0943443 -0.0494337 0.0669881 -0.0946843 
-0.0426891 0.0806303 -0.0851837 -0.0898355 0.0849472 -0.0885189 -0.0374442 0.0924184 -0.0841702 
-0.0689862 0.135384 -0.0869848 -0.0862438 0.158173 -0.0889079 -0.051051 0.184566 -0.0835193 
-0.142038 0.0751842 -0.0778555 -0.112753 0.0612989 -0.0737398 -0.0264609 0.0552314 -0.0703603 
-0.0551407 0.0713149 -0.0714624 -0.0848825 0.137342 -0.0727564 -0.0633484 0.161635 -0.0708904 
-0.115328 0.180864 -0.0710483 -0.0841901 0.0609635 -0.0637312 -0.0218383 0.0652508 -0.0646824 
-0.0745807 0.0775346 -0.062174 -0.116339 0.115073 -0.0613274 -0.0206416 0.18081 -0.0625846 
-0.0926703 0.057279 -0.0586786 -0.0122657 0.177905 -0.0529262 -0.0076622 0.0618996 -0.0453578 
-0.106224 0.0670657 -0.0454425 -0.0748811 0.0728804 -0.0453642 -0.0442072 0.076748 -0.0475077 
-0.0568733 0.0919371 -0.0433935 -0.0276479 0.103526 -0.0471779 -0.0825843 0.169354 -0.0489251 
-0.0529626 0.188453 -0.0495144 -0.115767 0.0552964 -0.0409731 -0.0762182 0.0553768 -0.0419611 
-0.00636161 0.0753122 -0.0428286 -0.0388496 0.0872061 -0.0384116 -0.128429 0.105967 -0.0425153 
-0.0532753 0.055202 -0.0333784 -0.131951 0.0763539 -0.0315113 -0.117453 0.0724438 -0.0339914 
-0.0517328 0.0780762 -0.032808 -0.104349 0.145879 -0.0326997 -0.127583 0.164315 -0.0307964 
-0.0692442 0.0653746 -0.0275219 -0.0591134 0.0649651 -0.0233767 -0.00335254 0.0713977 -0.0276316 
-0.043354 0.078535 -0.024893 -0.137989 0.0580207 -0.0195502 -0.0469831 0.069704 -0.0216295 
-0.0899329 0.0813823 -0.0231929 -0.0224263 0.101473 -0.0191523 -0.0136229 0.131829 -0.0186143 
-0.0488331 0.140652 -0.019761 -0.137552 0.0560402 -0.00891541 -0.0748883 0.0629085 -0.0116479 
-0.144793 0.100496 -0.0129403 -0.135831 0.0942694 -0.00896394 -0.0171293 0.180462 -0.0113622 
-0.10672 0.0569638 -0.0076996 -0.0791678 0.0570603 -0.00055498 -0.0484972 0.0563856 -0.000329732 
-0.114646 0.0617855 -0.0034931 -0.0984234 0.0656501 -0.000588968 -0.0141181 0.0843973 -0.00309785 
-0.0713578 0.0893027 -0.00193149 -0.135502 0.106916 -0.00829366 -0.0446975 0.14748 -0.00115547 
-0.0200596 0.120326 -0.000377537 -0.133221 0.0609463 0.0035801 -0.122677 0.0614129 0.00495166 
-0.0964594 0.0580626 0.006287 -0.106273 0.0671217 0.0068688 -0.105109 0.155913 0.142313 
-0.144329 0.0593311 0.0132795 -0.0523902 0.0551393 0.0126831 -0.0359936 0.0624157 0.010827 
-0.112728 0.0715684 0.0148058 -0.129828 0.0665973 0.0151431 -0.118861 0.0664189 0.0211155 
-0.0116737 0.0678037 0.0208505 -0.00148629 0.0681609 0.0172811 -0.0452555 0.071926 0.0179174 
-0.109786 0.0929698 0.0174009 -0.0911969 0.0933391 0.0166088 -0.132697 0.0551202 0.02492 
-0.0982773 0.0613852 0.0279636 -0.050594 0.0568654 0.0284565 -0.0123683 0.056041 0.0244154 
-0.0836194 0.065575 0.0252916 -0.0869262 0.154281 0.0242666 -0.0265769 0.0691567 0.0302783 
-0.131688 0.0779529 0.0305105 -0.0215516 0.0862826 0.0369941 -0.0427074 0.128529 0.0365363 
-0.10265 0.155917 0.0347395 -0.124373 0.0594741 0.0455917 -0.0664199 0.0597227 0.0401116 
-0.0170495 0.0568039 0.0396257 -0.130843 0.06788 0.0395803 -0.0355652 0.0624044 0.0403734 
-0.0272449 0.0705832 0.040592 -0.1293 0.104865 0.0436785 -0.0660782 0.170822 0.0377727 
-0.0883745 0.0562471 0.0481202 -0.0782409 0.0586129 0.0480023 -0.0897905 0.150718 0.0468204 
-0.0992054 0.160273 0.0494212 -0.137081 0.0565198 0.0541329 -0.0128544 0.0605855 0.0601299 
-0.142814 0.0674699 0.0565774 -0.0218075 0.0635843 0.0544033 -0.111687 0.131801 0.0581712 
-0.0401407 0.161466 0.0590509 -0.0957446 0.0839009 0.063902 -0.121929 0.0855215 0.0647106 
-0.0704008 0.0982936 0.0625587 -0.106768 0.17643 0.062131 -0.0515656 0.185285 0.0619301 
-0.138701 0.0571491 0.0691899 -0.0483825 0.062482 0.071304 -0.0218092 0.0984795 0.0742982 
-0.13964 0.178887 0.0708805 -0.129465 0.17402 0.0744694 -0.0517706 0.181276 0.0712484 
-0.0861853 0.124938 0.0777064 -0.0260893 0.169001 0.0818605 -0.140457 0.10305 0.085985 
-0.0418901 0.143009 0.0872138 -0.141346 0.166303 0.0840536 -0.120297 0.178755 0.0836254 
-0.0498144 0.0644598 0.0975202 -0.111711 0.14942 0.0901733 -0.0169162 0.150601 0.0973861 
-0.0373382 0.0689776 0.0997721 -0.029466 0.100093 0.100664 -0.120955 0.141107 0.0995217 
-0.140335 0.161101 0.104457 -0.0300699 0.161966 0.100061 -0.0811443 0.169501 0.101092 
-0.0615867 0.107182 0.106943 -0.0534181 0.116408 0.108935 -0.0606018 0.0981088 0.113878 
-0.0763775 0.121487 0.119909 -0.109689 0.140761 0.113556 -0.0710327 0.142599 0.114088 
-0.0416306 0.150188 0.11508 -0.0294613 0.153966 0.112928 -0.030387 0.0573662 0.124705 
-0.0502725 0.133885 0.123102 -0.131991 0.145313 0.121368 -0.121731 0.129167 0.130487 
-0.0966723 0.129495 0.129979 -0.14258 0.0679042 0.140304 -0.0790132 0.0916841 0.141035 
-0.0719704 0.10305 0.13542 -0.0478113 0.133878 0.141479 -0.0923842 0.05573 0.143245 
-0.0221907 0.063751 0.144961 -0.0852358 0.0805665 0.144242 -0.108634 0.207243 -0.0927642 
-0.108634 0.207235 -0.0975379 -0.10386 0.207245 -0.0927642 -0.10386 0.207236 -0.0975379 
-0.108636 0.214827 -0.0975501 -0.108636 0.214835 -0.0927764 -0.103862 0.214837 -0.0927764 
-0.103862 0.214828 -0.0975501 -0.0285424 0.213653 0.0292608 -0.0335155 0.213799 0.0292346 
-0.0284061 0.218626 0.029359 -0.0333792 0.218772 0.0293329 -0.0285727 0.213532 0.0342338 
-0.0335457 0.213678 0.0342077 -0.0284364 0.218505 0.0343321 -0.0334095 0.218651 0.034306 
-0.0957255 0.235601 0.0531304 -0.0875288 0.235602 0.0531304 -0.0957269 0.259502 0.0531337 
-0.0875303 0.259503 0.0531338 -0.0957256 0.235599 0.061327 -0.0875289 0.2356 0.0613271 
-0.095727 0.259499 0.0613304 -0.0875304 0.2595 0.0613305 0.0138482 0.0552338 -0.144826 
0.0229212 0.0605117 -0.14469 0.0422502 0.0577116 -0.142725 0.00362295 0.0653239 -0.144519 
0.143605 0.0978263 -0.143683 0.100799 0.104051 -0.144927 0.122428 0.117656 -0.144144 
0.106269 0.129058 -0.144675 0.00714796 0.0557736 -0.135818 0.0317161 0.0550712 -0.138109 
0.111832 0.0591055 -0.139776 0.0525201 0.0637672 -0.134614 0.0675396 0.0767859 -0.138872 
0.104623 0.0763966 -0.142141 0.00615875 0.0820496 -0.138396 0.0180067 0.0814731 -0.13747 
0.071223 0.0560582 -0.12877 0.0116147 0.0667303 -0.129278 0.0272767 0.0623722 -0.131286 
0.0326557 0.0749021 -0.129187 0.0606658 0.0764185 -0.127781 0.0947069 0.0800846 -0.130713 
0.108335 0.0575294 -0.126984 0.0382733 0.0637884 -0.124416 0.119835 0.135237 -0.122444 
0.144773 0.0606448 -0.115472 0.084818 0.0671284 -0.115282 0.0246125 0.0779812 -0.116954 
0.0690239 0.0790861 -0.120049 0.00101692 0.0921199 -0.116391 0.0994494 0.142981 -0.117827 
0.120405 0.0653907 -0.110693 0.0556331 0.0865646 -0.108826 0.0336904 0.11613 -0.110818 
0.0293078 0.0573151 -0.104379 0.00407576 0.0691937 -0.0970573 0.0663195 0.0645188 -0.102002 
0.0707073 0.0827017 -0.0986442 0.0463636 0.110902 -0.103421 0.117736 0.151253 -0.104983 
0.0376372 0.0589847 -0.0931008 0.0529066 0.069977 -0.0929625 0.0932146 0.130739 -0.0977752 
0.136187 0.145643 -0.0934463 0.117371 0.0613703 -0.0824755 0.139906 0.0561815 -0.0847524 
0.00713661 0.0634425 -0.0823974 0.0140013 0.0779042 -0.085472 0.0265786 0.0726232 -0.0874159 
0.0405121 0.071712 -0.0829261 0.0452856 0.0835444 -0.0882079 0.118201 0.0990271 -0.0836448 
0.0693032 0.138774 -0.0872652 0.0184786 0.0549946 -0.0821132 0.0468157 0.0573061 -0.0800757 
0.0925966 0.0828107 -0.0824405 0.0736838 0.0972747 -0.0770024 0.0619193 0.11325 -0.0797633 
0.0158068 0.0609754 -0.0737367 0.0286642 0.0687354 -0.0739611 0.0639469 0.0678714 -0.0725671 
0.0372621 0.0983824 -0.0716026 0.109461 0.129016 -0.0706851 0.0791893 0.150305 -0.0732532 
0.00839894 0.0614181 -0.0669235 0.0609814 0.120194 -0.062337 0.0127871 0.130315 -0.0631748 
0.077499 0.0650404 -0.0580689 0.0522898 0.0954804 -0.0570581 0.0268073 0.113562 -0.0529201 
0.0494864 0.113625 -0.0551711 0.0853605 0.147904 -0.0564998 0.116199 0.152471 -0.0556865 
0.0658769 0.160417 -0.0535462 0.122944 0.0626238 -0.048205 0.141922 0.0724373 -0.0495422 
0.1448 0.105405 -0.0435786 0.0100475 0.127549 -0.0373429 0.0426118 0.133216 -0.0443778 
0.0682013 0.14184 -0.0405509 0.0841556 0.148338 -0.0404881 0.0772728 0.0572392 -0.0329248 
0.0222891 0.0795727 -0.0351172 0.0226398 0.105145 -0.0323274 0.0373683 0.168845 -0.0370743 
0.11216 0.0580981 -0.028836 0.0636929 0.0640283 -0.0272196 0.0495432 0.0899565 -0.0269286 
0.132895 0.0860952 -0.0286787 0.0711441 0.0964577 -0.0293002 0.133146 0.0972533 -0.0266487 
0.0446557 0.124027 -0.0274426 0.0190586 0.128889 -0.0269856 0.0392525 0.0651824 -0.0201947 
0.042163 0.0776117 -0.0186568 0.144255 0.076841 -0.0174116 0.0540772 0.097336 -0.0218384 
0.0265552 0.0600184 -0.00973125 0.0865703 0.0757606 -0.00827982 0.137803 0.100117 -0.0080893 
0.035999 0.0573265 -0.00377307 0.116531 0.0601286 -0.00717096 0.140937 0.0756987 -0.00685315 
0.078829 0.0930386 -0.00431451 0.0468848 0.117316 -0.00156445 0.00908324 0.139754 -0.00800349 
0.14463 0.135612 -0.00707616 0.00147732 0.0549974 -0.102639 0.070231 0.0573464 0.00486579 
0.13024 0.0691329 0.00101554 0.000257891 0.0856143 0.00239573 0.115721 0.0629718 0.00770601 
0.0689352 0.0708268 0.0108315 0.0943198 0.0764795 0.0109248 0.108348 0.0860415 0.0087499 
0.0242991 0.0865767 0.0112037 0.12616 0.128018 0.00899468 0.0213564 0.133519 0.0101691 
0.0377636 0.15819 0.0134159 0.0863989 0.0636815 0.0168865 0.103585 0.0648908 0.0189547 
0.106027 0.0591757 0.0295489 0.0390602 0.0631268 0.0275913 0.0717401 0.0737672 0.0269253 
0.0551291 0.0934231 0.0233858 0.0255039 0.131301 0.0242417 0.0787118 0.0610946 0.0301816 
0.0601635 0.0765958 0.0362846 0.113902 0.0725506 0.0319803 0.0363189 0.0917847 0.0325344 
0.0157595 0.0951825 0.0362526 0.0757391 0.0557752 0.0406454 0.130291 0.0556045 0.0408253 
0.0594153 0.065357 0.0448742 0.134311 0.0684759 0.0383851 0.141527 0.073488 0.0449905 
0.0856791 0.0803475 0.0425033 0.0315408 0.159701 0.0388382 0.104896 0.160699 0.042932 
0.136188 0.0663634 0.0525913 0.018085 0.0779213 0.0475007 0.0756704 0.0748536 0.0455658 
0.10849 0.117222 0.0491853 0.0264127 0.0564798 0.0542416 0.0414802 0.0598138 0.0579746 
0.0852251 0.127231 0.0569815 0.0389639 0.138326 0.0546902 0.000828236 0.154094 0.0535264 
0.113312 0.0766327 0.0631882 0.000582045 0.147421 0.0628086 0.099617 0.170839 0.0668441 
0.0284925 0.0572708 0.0730747 0.13529 0.165926 0.0715783 0.108263 0.180138 0.0738484 
0.0261503 0.0552605 0.0825509 0.00226112 0.0763376 0.0758519 0.122935 0.0877109 0.0788496 
0.0535488 0.161352 0.0753353 0.140384 0.0618284 0.0861382 0.117798 0.0687871 0.0913033 
0.0341193 0.0894621 0.0875488 0.0524763 0.106623 0.0844455 0.139511 0.130994 0.0862027 
0.00368054 0.0609714 0.0947357 0.136941 0.0716445 0.0941641 0.0137747 0.0986085 0.0899227 
0.0991628 0.106694 0.0954176 0.0897158 0.151148 0.0903814 0.0527991 0.060389 0.0985522 
0.114312 0.0750741 0.102609 0.010971 0.100906 0.100162 0.0705294 0.149954 0.104676 
0.136864 0.0806233 0.106678 0.0554217 0.0934712 0.107798 0.0980264 0.105838 0.111243 
0.127202 0.11284 0.10754 0.0150909 0.055319 0.120306 0.0683143 0.103967 0.112399 
0.0236574 0.129453 0.116253 0.0765252 0.165678 0.11737 0.04299 0.178573 0.116821 
0.0918398 0.0567306 0.120815 0.034342 0.092997 0.121875 0.0657892 0.0923046 0.120661 
0.0141972 0.168153 0.122609 0.0225611 0.0634538 0.12967 0.0182003 0.0799437 0.133238 
0.0301014 0.100277 0.132372 0.128453 0.171903 0.128426 0.127886 0.0584605 0.136883 
0.136141 0.0638837 0.138882 0.138901 0.0910265 0.138918 0.0806615 0.140048 0.139679 
0.0430182 0.14727 0.136011 0.00360503 0.185169 0.139097 0.014008 0.166982 0.144288 
0.114965 0.180875 0.143158 
VERTICES 422 421
OFFSETS vtktypeint64
0 1 2 3 4 5 6 7 8 
9 10 11 12 13 14 15 16 17 
18 19 20 21 22 23 24 25 26 
27 28 29 30 31 32 33 34 35 
36 37 38 39 40 41 42 43 44 
45 46 47 48 49 50 51 52 53 
54 55 56 57 58 59 60 61 62 
63 64 65 66 67 68 69 70 71 
72 73 74 75 76 77 78 79 80 
81 82 83 84 85 86 87 88 89 
90 91 92 93 94 95 96 97 98 
99 100 101 102 103 104 105 106 107 
108 109 110 111 112 113 114 115 116 
117 118 119 120 121 122 123 124 125 
126 127 128 129 130 131 132 133 134 
135 136 137 138 139 140 141 142 143 
144 145 146 147 148 149 150 151 152 
153 154 155 156 157 158 159 160 161 
162 163 164 165 166 167 168 169 170 
171 172 173 174 175 176 177 178 179 
180 181 182 183 184 185 186 187 188 
189 190 191 192 193 194 195 196 197 
198 199 200 201 202 203 204 205 206 
207 208 209 210 211 212 213 214 215 
216 217 218 219 220 221 222 223 224 
225 226 227 228 229 230 231 232 233 
234 235 236 237 238 239 240 241 242 
243 244 245 246 247 248 249 250 251 
252 253 254 255 256 257 258 259 260 
261 262 263 264 265 266 267 268 269 
270 271 272 273 274 275 276 277 278 
279 280 281 282 283 284 285 286 287 
288 289 290 291 292 293 294 295 296 
297 298 299 300 301 302 303 304 305 
306 307 308 309 310 311 312 313 314 
315 316 317 318 319 320 321 322 323 
324 325 326 327 328 329 330 331 332 
333 334 335 336 337 338 339 340 341 
342 343 344 345 346 347 348 349 350 
351 352 353 354 355 356 357 358 359 
360 361 362 363 364 365 366 367 368 
369 370 371 372 373 374 375 376 377 
378 379 380 381 382 383 384 385 386 
387 388 389 390 391 392 393 394 395 
396 397 398 399 400 401 402 403 404 
405 406 407 408 409 410 411 412 413 
414 415 416 417 418 419 420 421 
CONNECTIVITY vtktypeint64
0 1 2 3 4 5 6 7 8 
9 10 11 12 13 14 15 16 17 
18 19 20 21 22 23 24 25 26 
27 28 29 30 31 32 33 34 35 
36 37 38 39 40 41 42 43 44 
45 46 47 48 49 50 51 52 53 
54 55 56 57 58 59 60 61 62 
63 64 65 66 67 68 69 70 71 
72 73 74 75 76 77 78 79 80 
81 82 83 84 85 86 87 88 89 
90 91 92 93 94 95 96 97 98 
99 100 101 102 103 104 105 106 107 
108 109 110 111 112 113 114 115 116 
117 118 119 120 121 122 123 124 125 
126 127 128 129 130 131 132 133 134 
135 136 137 138 139 140 141 142 143 
144 145 146 147 148 149 150 151 152 
153 154 155 156 157 158 159 160 161 
162 163 164 165 166 167 168 169 170 
171 172 173 174 175 176 177 178 179 
180 181 182 183 184 185 186 187 188 
189 190 191 192 193 194 195 196 197 
198 199 200 201 202 203 204 205 206 
207 208 209 210 211 212 213 214 215 
216 217 218 219 220 221 222 223 224 
225 226 227 228 229 230 231 232 233 
234 235 236 237 238 239 240 241 242 
243 244 245 246 247 248 249 250 251 
252 253 254 255 256 257 258 259 260 
261 262 263 264 265 266 267 268 269 
270 271 272 273 274 275 276 277 278 
279 280 281 282 283 284 285 286 287 
288 289 290 291 292 293 294 295 296 
297 298 299 300 301 302 303 304 305 
306 307 308 309 310 311 312 313 314 
315 316 317 318 319 320 321 322 323 
324 325 326 327 328 329 330 331 332 
333 334 335 336 337 338 339 340 341 
342 343 344 345 346 347 348 349 350 
351 352 353 354 355 356 357 358 359 
360 361 362 363 364 365 366 367 368 
369 370 371 372 373 374 375 376 377 
378 379 380 381 382 383 384 385 386 
387 388 389 390 391 392 393 394 395 
396 397 398 399 400 401 402 403 404 
405 406 407 408 409 410 411 412 413 
414 415 416 417 418 419 420 
POINT_DATA 421
FIELD FieldData 8
id 1 421 int
3781 3801 3994 3970 3744 3884 3745 2648 3937 
3894 2739 3785 2755 2901 3823 3917 3749 3726 
3907 3024 3586 3931 3296 3023 3773 3987 3959 
3730 3981 3802 3844 3852 3903 3858 3180 3403 
3134 3685 3943 3359 3830 3711 3734 3757 3960 
3242 3908 3873 3976 3824 2756 3716 3727 3731 
3808 3949 3767 3026 3814 3877 3932 3243 3404 
3360 3181 2962 2961 3758 3738 3686 3774 3687 
2825 3853 3918 2749 3809 2823 3961 3896 3135 
2824 3878 3759 3786 3919 2482 3995 3297 3787 
3939 3244 3519 3895 3925 3938 3920 3815 3133 
3885 3746 3975 3182 3971 3879 3996 3951 3845 
3953 3982 2902 3720 3831 3722 3688 3962 3782 
3950 3825 3803 3835 2963 3940 3909 3988 3836 
3631 3747 3810 3775 3794 3587 3955 3846 3989 
3783 3760 3788 3847 3854 3406 3906 3728 3735 
3768 3911 2826 3769 3863 3871 3864 3461 3859 
3795 3910 3941 3761 3299 2757 3721 3136 3765 
3245 3407 2964 3904 3588 3776 3898 3736 3183 
3754 3865 3817 3954 2509 3886 3804 2649 3748 
3997 3874 3963 3837 3933 3880 3866 3855 3977 
3984 3887 3921 3897 3729 3956 3632 3690 3689 
3848 3875 4019 4018 4023 4022 4020 4021 4017 
4024 4014 4010 4016 4012 4015 4011 4009 4013 
4002 4006 4004 4008 4003 4007 4005 4001 3899 
3849 3161 3927 3876 3957 3905 3942 3972 3818 
3934 3838 3811 3900 3952 3789 3741 3978 3964 
3762 3860 3440 3717 2927 3965 3867 2989 3922 
3784 3025 3944 3945 3985 3796 3888 3819 3755 
3856 2867 3839 3665 2591 3666 3868 3812 3869 
3766 2481 3208 3770 3778 3712 3826 3737 2748 
3441 3840 3691 3805 3889 3162 3881 3386 3832 
3966 3262 3793 3777 3806 3891 3797 3841 3827 
3813 2483 3850 2751 2750 3929 3928 3842 3324 
3763 3915 3713 3851 3723 3999 3946 3614 3771 
3973 3990 3385 3991 3890 3613 3714 3923 3913 
3779 3914 3442 3870 3901 3882 3912 3405 3764 
3791 3263 2690 3820 3732 3828 2790 3742 3084 
3518 3718 3692 3979 3790 3667 3668 3986 3974 
3750 3998 2484 3924 3916 2928 3739 3947 3715 
3892 3756 3807 3751 3719 3993 3799 3298 3926 
4000 3821 3834 3833 3862 3520 3861 3752 3209 
3843 3325 3958 2752 3772 3930 3798 3443 3780 
2550 3326 3857 3980 3829 3968 2868 3983 3822 
3733 3872 3902 3992 3792 3800 3743 3753 3521 
3935 2753 3725 3694 3883 3969 3967 3724 3936 
3444 3693 3948 3893 2754 2990 3163 
type 1 421 int
2 2 2 2 2 2 2 2 2 
2 2 2 2 2 2 2 2 2 
2 2 2 2 2 2 2 2 2 
2 2 2 2 2 2 2 2 2 
2 2 2 2 2 2 2 2 2 
2 2 2 2 2 2 2 2 2 
2 2 2 2 2 2 2 2 2 
2 2 2 2 2 2 2 2 2 
2 2 2 2 2 2 2 2 2 
2 2 2 2 2 2 2 2 2 
2 2 2 2 2 2 2 2 2 
2 2 2 2 2 2 2 2 2 
2 2 2 2 2 2 2 2 2 
2 2 2 2 2 2 2 2 2 
2 2 2 2 2 2 2 2 2 
2 2 2 2 2 2 2 2 2 
2 2 2 2 2 2 2 2 2 
2 2 2 2 2 2 2 2 2 
2 2 2 2 2 2 2 2 2 
2 2 2 2 2 2 2 2 2 
2 2 2 2 2 2 2 2 2 
2 2 2 2 2 2 2 2 2 
2 2 2 2 2 2 2 2 2 
2 2 2 2 2 2 2 2 2 
2 2 2 2 2 2 2 2 2 
2 2 2 2 2 2 2 2 2 
2 2 2 2 2 2 2 2 2 
2 2 2 2 2 2 2 2 2 
2 2 2 2 2 2 2 2 2 
2 2 2 2 2 2 2 2 2 
2 2 2 2 2 2 2 2 2 
2 2 2 2 2 2 2 2 2 
2 2 2 2 2 2 2 2 2 
2 2 2 2 2 2 2 2 2 
2 2 2 2 2 2 2 2 2 
2 2 2 2 2 2 2 2 2 
2 2 2 2 2 2 2 2 2 
2 2 2 2 2 2 2 2 2 
2 2 2 2 2 2 2 2 2 
2 2 2 2 2 2 2 2 2 
2 2 2 2 2 2 2 2 2 
2 2 2 2 2 2 2 2 2 
2 2 2 2 2 2 2 2 2 
2 2 2 2 2 2 2 2 2 
2 2 2 2 2 2 2 2 2 
2 2 2 2 2 2 2 2 2 
2 2 2 2 2 2 2 
i 3 421 int
0 0 0 0 0 0 0 0 0 
0 0 0 0 0 0 0 0 0 
0 0 0 0 0 0 0 0 0 
0 0 0 0 0 0 0 0 0 
0 0 0 0 0 0 0 0 0 
0 0 0 0 0 0 0 0 0 
0 0 0 0 0 0 0 0 0 
0 0 0 0 0 0 0 0 0 
0 0 0 0 0 0 0 0 0 
0 0 0 0 0 0 0 0 0 
0 0 0 0 0 0 0 0 0 
0 0 0 0 0 0 0 0 0 
0 0 0 0 0 0 0 0 0 
0 0 0 0 0 0 0 0 0 
0 0 0 0 0 0 0 0 0 
0 0 0 0 0 0 0 0 0 
0 0 0 0 0 0 0 0 0 
0 0 0 0 0 0 0 0 0 
0 0 0 0 0 0 0 0 0 
0 0 0 0 0 0 0 0 0 
0 0 0 0 0 0 0 0 0 
0 0 0 0 0 0 0 0 0 
0 0 0 0 0 0 0 0 0 
0 0 0 0 0 0 0 0 0 
0 0 0 0 0 0 0 0 0 
0 0 0 0 0 0 0 0 0 
0 0 0 0 0 0 0 0 0 
0 0 0 0 0 0 0 0 0 
0 0 0 0 0 0 0 0 0 
0 0 0 0 0 0 0 0 0 
0 0 0 0 0 0 0 0 0 
0 0 0 0 0 0 0 0 0 
0 0 0 0 0 0 0 0 0 
0 0 0 0 0 0 0 0 0 
0 0 0 0 0 0 0 0 0 
0 0 0 0 0 0 0 0 0 
0 0 0 0 0 0 0 0 0 
0 0 0 0 0 0 0 0 0 
0 0 0 0 0 0 0 0 0 
0 0 0 0 0 0 0 0 0 
0 0 0 0 0 0 0 0 0 
0 0 0 0 0 0 0 0 0 
0 0 0 0 0 0 0 0 0 
0 0 0 0 0 0 0 0 0 
0 0 0 0 0 0 0 0 0 
0 0 0 0 0 0 0 0 0 
0 0 0 0 0 0 0 0 0 
0 0 0 0 0 0 0 0 0 
0 0 0 0 0 0 0 0 0 
0 0 0 0 0 0 0 0 0 
0 0 0 0 0 0 0 0 0 
0 0 0 0 0 0 0 0 0 
0 0 0 0 0 0 0 0 0 
0 0 0 0 0 0 0 0 0 
0 0 0 0 0 0 0 0 0 
0 0 0 0 0 0 0 0 0 
0 0 0 0 0 0 0 0 0 
0 0 0 0 0 0 0 0 0 
0 0 0 0 0 0 0 0 0 
0 0 0 0 0 0 0 0 0 
0 0 0 0 0 0 0 0 0 
0 0 0 0 0 0 0 0 0 
0 0 0 0 0 0 0 0 0 
0 0 0 0 0 0 0 0 0 
0 0 0 0 0 0 0 0 0 
0 0 0 0 0 0 0 0 0 
0 0 0 0 0 0 0 0 0 
0 0 0 0 0 0 0 0 0 
0 0 0 0 0 0 0 0 0 
0 0 0 0 0 0 0 0 0 
0 0 0 0 0 0 0 0 0 
0 0 0 0 0 0 0 0 0 
0 0 0 0 0 0 0 0 0 
0 0 0 0 0 0 0 0 0 
0 0 0 0 0 0 0 0 0 
0 0 0 0 0 0 0 0 0 
0 0 0 0 0 0 0 0 0 
0 0 0 0 0 0 0 0 0 
0 0 0 0 0 0 0 0 0 
0 0 0 0 0 0 0 0 0 
0 0 0 0 0 0 0 0 0 
0 0 0 0 0 0 0 0 0 
0 0 0 0 0 0 0 0 0 
0 0 0 0 0 0 0 0 0 
0 0 0 0 0 0 0 0 0 
0 0 0 0 0 0 0 0 0 
0 0 0 0 0 0 0 0 0 
0 0 0 0 0 0 0 0 0 
0 0 0 0 0 0 0 0 0 
0 0 0 0 0 0 0 0 0 
0 0 0 0 0 0 0 0 0 
0 0 0 0 0 0 0 0 0 
0 0 0 0 0 0 0 0 0 
0 0 0 0 0 0 0 0 0 
0 0 0 0 0 0 0 0 0 
0 0 0 0 0 0 0 0 0 
0 0 0 0 0 0 0 0 0 
0 0 0 0 0 0 0 0 0 
0 0 0 0 0 0 0 0 0 
0 0 0 0 0 0 0 0 0 
0 0 0 0 0 0 0 0 0 
0 0 0 0 0 0 0 0 0 
0 0 0 0 0 0 0 0 0 
0 0 0 0 0 0 0 0 0 
0 0 0 0 0 0 0 0 0 
0 0 0 0 0 0 0 0 0 
0 0 0 0 0 0 0 0 0 
0 0 0 0 0 0 0 0 0 
0 0 0 0 0 0 0 0 0 
0 0 0 0 0 0 0 0 0 
0 0 0 0 0 0 0 0 0 
0 0 0 0 0 0 0 0 0 
0 0 0 0 0 0 0 0 0 
0 0 0 0 0 0 0 0 0 
0 0 0 0 0 0 0 0 0 
0 0 0 0 0 0 0 0 0 
0 0 0 0 0 0 0 0 0 
0 0 0 0 0 0 0 0 0 
0 0 0 0 0 0 0 0 0 
0 0 0 0 0 0 0 0 0 
0 0 0 0 0 0 0 0 0 
0 0 0 0 0 0 0 0 0 
0 0 0 0 0 0 0 0 0 
0 0 0 0 0 0 0 0 0 
0 0 0 0 0 0 0 0 0 
0 0 0 0 0 0 0 0 0 
0 0 0 0 0 0 0 0 0 
0 0 0 0 0 0 0 0 0 
0 0 0 0 0 0 0 0 0 
0 0 0 0 0 0 0 0 0 
0 0 0 0 0 0 0 0 0 
0 0 0 0 0 0 0 0 0 
0 0 0 0 0 0 0 0 0 
0 0 0 0 0 0 0 0 0 
0 0 0 0 0 0 0 0 0 
0 0 0 0 0 0 0 0 0 
0 0 0 0 0 0 0 0 0 
0 0 0 0 0 0 0 0 0 
0 0 0 0 0 0 0 0 0 
0 0 0 0 0 0 0 0 0 
0 0 0 
v 3 421 double
0.011437581343 0.0064495035338 -0.011133559874 0.010048934566 -0.00070430313784 0.0034683114765 -0.015970077835 0.15166809512 0.0078683031147 
-0.13317801248 0.16221021249 0.0070055395523 0.0084999301845 0.1323890659 0.0081926522313 0.0041098429884 0.30328549985 0.0085481915591 
-0.0056303209371 0.0085283445581 0.016039859049 -0.027173646627 0.011902077028 0.021408443641 0.00042695319134 0.13846042764 0.029105660503 
0.0046274359853 0.008066801115 -0.0032981339191 0.0086390268809 0.038845535794 -0.0015567670795 -0.021953360345 0.025884201396 0.04599242959 
-0.015825932323 -0.0093599622889 0.054880867859 0.019798951085 0.040401127349 0.0076420378047 -0.027682094838 0.035560805087 0.07204171858 
-0.078830096885 0.05744859893 0.00019912973901 -0.19048707261 0.037453699347 -0.044591951551 0.088754276994 0.22662720955 0.01755179333 
0 0.410001241 0 0.012445841211 0.010247161759 0.022377678425 -0.052806535397 0.024323413529 0.073682984456 
-0.055110835015 0.016838623604 0.044337729087 0.012718550083 0.067616469755 0.01425317236 -0.032235806057 0.015450186834 0.090000174597 
-0.046543241901 0.073906791384 0.057776194531 -0.031250205073 0.21919385107 0.082559184695 -0.00066328633309 0.27334262606 0.093316999735 
-0.0073663242247 0.069707047504 -0.21902865838 0.096087284017 0.12261288527 -0.004294039915 -0.040956546694 0.26237529859 -0.077021290032 
-0.023837693753 0.013424326694 0.030482934101 -0.024108631974 0.052866387327 -0.0092589620461 0.035121297983 0.12847363527 0.096812815135 
0.0527175037 0.1461298439 -0.014994661505 -0.005644904192 0.11634111591 0.004857108426 -0.0096575554909 0.27005267014 0.0080604148417 
0.0017389604782 0.39882328398 -0.0017389604782 0.12933529232 0.042588217061 0.051919416551 0.010421709988 0.032597662155 0.089304931032 
-0.097613623005 0.14261836488 -0.069878233524 -0.02568388976 0.17898130461 0.043235618101 0.15312727312 0.17656285951 -0.0069606360303 
0 0.39896583638 0 0.17906924697 0.04465336239 0.12954131523 -0.097092786944 0.060812066546 0.13240196031 
8.7304082862e-05 0.05658216547 0.0490846904 -0.21558529215 -0.019513045433 -0.17941226195 -0.041178332009 0.14957725344 0.14796284926 
-0.00010155981897 0.4026845298 0.00010091191765 0 0.4099646538 0 0 0.39895779965 -0.0048950405667 
0.084560273476 0.0049494460269 0.023097140815 -0.023683525094 0.038479039595 0.077669425022 -0.10514529648 0.01736526256 0.032910920883 
0.022134701501 0.099469048355 -0.23615431165 0 0.39875905054 0 -0.004507024569 0.40045571211 -0.019038581245 
-1.4485258125e-05 0.39873630553 -3.634419112e-05 0.12737850624 0.034248587914 0.14055173702 -0.051741169069 0.04058371722 -0.053836692909 
0.0048568421874 0.08945452959 -0.10391745121 0.0073616794846 0.22860097262 0.0056379145434 0.013750131286 0.41310435568 -0.010249234026 
-0.1093329276 0.013073293453 -0.054392005946 -0.0006249839803 0.39654364795 -0.0035443033661 -0.0039167831326 0.051254836739 -0.001557137884 
0.0720265258 0.092481050782 0.10567728676 0.21273066105 0.083784470045 0.0040210919325 -0.30322048806 -0.00067532323441 -0.23970168846 
-0.082935369571 0.12454513688 0.22031739751 0.1287683514 0.19121853907 0.11076579337 0 0.39374558319 -0.0047274651976 
0 0.41049660782 0 0.021593665187 0.0095357454859 0.083271952659 0.016865480206 0.009155321853 -0.074806218358 
-0.035862658324 0.090291244517 0.064308977049 0.088817694295 0.1124998154 -0.053149249242 0.048239276178 0.099225294711 0.24497616456 
0.095677381331 0.0044200649861 -0.086041273012 -0.10659233928 0.13529730026 -0.13355815864 0.011388376557 0.041364487349 -0.11565082641 
0.14831821886 0.096433713588 0.0054818525004 0 0.39904491296 0 0 0.40508628054 1.1391752074e-05 
0.068650783752 0.018026213225 0.060475464125 0.13889610943 -0.022972110717 0.059703086428 -0.019593090008 0.057115403233 0.099738465183 
0.11689517866 0.034012877468 -0.026184469839 0.029577089408 0.051621073356 0.036709279218 0.11173750803 0.065437441398 -0.013712116863 
-0.016476201133 0.099454444818 -0.084306564822 -0.011140416409 0.097767829241 -0.12921837017 -0.081077584478 0.27179021998 -0.19453844851 
0 0.38773520475 0 0.048027910193 0.025041146595 0.20688390184 0.031590655792 0.043572963739 -0.02529784089 
0.018591639551 0.12848182032 -0.079499134325 0.0094198569489 0.15103026516 -0.022541178981 -0.0030995011966 0.4005287818 -0.0015598553611 
-0.040935584861 0.0080659946873 -0.037605969439 -0.02456028625 0.011359228832 -0.0113720337 0.027032685635 0.021794619309 -0.024559164227 
-0.05241557277 -7.6474465414e-05 -0.038101718797 -0.079995245439 -0.017084149868 -0.024509996072 -0.033229108723 0.13146619811 -0.072439225811 
-0.0061600299512 0.11429591419 0.13432692073 -0.3079784592 0.20546468663 -0.29548681616 -0.018713004647 0.38875185117 7.8913229596e-15 
-0.15104217532 0.21350433729 -0.08847513098 0.019787213071 -0.021501967877 -0.04342603547 -0.041395108312 0.030254707256 -0.015962865519 
-0.047772226234 0.0132061549 0.03151757883 -0.04239299415 0.032731008683 -0.025360640441 -0.22880268682 0.26789886558 -0.019808350501 
0.0050133738183 0.03415893043 0.0051985059679 0.080529813377 0.0057628936695 0.0071294393731 0.077184004256 0.066064098953 0.077633274331 
0.017297158063 0.051523199259 0.034196204277 -0.0094375276358 0.047072839183 -0.0043676764478 -0.0039913111495 0.045910097796 0.029473773607 
0.14414420127 0.070733586407 0.116579113 0.08384646776 0.068416862212 0.012924444158 0.058087612515 0.020893658911 0.057573748421 
-0.093883439559 0.14252171153 0.082969879669 -0.029513261594 0.16173266479 0.02841832475 0.058714015235 0.0017270508604 -0.0052240249124 
-0.046054797591 0.035397971386 0.092164701031 0.045861773211 0.010416166083 0.066043061475 0.073524872124 -0.0089080269211 0.085640873075 
-0.021958819501 0.054191597684 0.048298013441 -0.0021049833578 0.38899466784 -0.000126565171 0.026945964456 0.018330502396 0.0051605768176 
0.024759942221 0.078324211804 0.044473428344 0.13707801014 0.10385176188 0.11392848556 -0.00052740355422 0.38710693906 -0.0011288573072 
-0.0020887119363 0.38986351732 -0.0070491576428 -0.055878085168 0.018552676409 0.077319089015 -0.0096835260449 0.035256949499 0.052062394919 
-0.029110559063 0.018207847277 -0.076876075613 -0.065001341762 0.019554148352 0.081816480773 0.0058662362083 -0.0047575354982 0.1205492242 
-0.20612077071 0.03697736462 -0.10285249585 -0.028734807798 0.24194419456 -0.0010331898798 0 0.41007381017 0 
0.015763933914 0.0065948336356 0.094849352011 0.047063978182 0.041759266265 -0.02083733871 -0.0016610994383 0.29654940525 0.0087496036546 
0.0020429030869 0.39521847008 -0.0010600737839 0.048787878444 0.025521855283 0.10157198777 -0.036678867017 0.018828960769 0.032514711551 
-0.1805049794 0.05781629622 -0.033949824544 0.17678183662 0.045691837597 0.11687765623 0.012190777852 0.32929773123 0.012633784709 
0 0.41052549956 0 -0.13645977946 0.12244416595 0.087249181893 0.031131950044 0.032706997154 0.10031977015 
-0.018697854525 0.19836571032 0.034234384001 0 0.39882697079 0 0.00010325432685 0.40108221516 -0.0062223017539 
0.047994318171 0.039418765254 0.071322416347 -0.00044574958215 0.029243049089 0.10201140501 -0.076416026534 0.17725342488 -0.024615689046 
0.00056348824668 0.40152978625 0.00027402949384 0.0023122065005 0.39628274053 0.0023597342796 -0.00010325432685 0.39693094846 -0.0034834038764 
0.044804293718 0.32049728826 -0.0062287931832 0 0.38755395842 -0.0050852537353 0.08060329694 0.0325350987 0.01274380369 
0.0002814165965 0.39586236908 -0.0042450652735 0 0.39872827304 0 -8.0938774001e-06 0.39894161244 0 
0.16820795446 0.029549338883 0.12446726565 -0.00036883905222 0.40129851273 -0.0077537456699 0 0.38761842277 0 
-0.012212897362 0.075823784745 -0.18361467497 -0.0033082998542 0.13377592098 -0.0033247496929 0.0012503121485 0.38702661056 -0.005926866043 
0 0.41016565709 9.1963837408e-06 -0.0046666478446 0.28784143851 -0.0046798590522 0.0002436659938 0.41148920957 0.0063921664547 
0.033991363402 0.19247764267 -0.017820487125 0.042256730961 0.27150018908 0.1254322865 -0.018673129003 0.22509155007 0.014510142177 