# vtk DataFile Version 5.1
Generated by LIGGGHTS
ASCII
DATASET POLYDATA
POINTS 1282 float
-0.135641 0.0558003 -0.14321 -0.138559 0.069397 -0.142886 -0.112252 0.0912035 -0.143565 
-0.140843 0.147183 -0.143232 -0.143154 0.0610615 -0.139009 -0.119791 0.0597722 -0.134929 
-0.0195009 0.0814679 -0.136866 -0.0182092 0.11666 -0.138143 -0.104859 0.142148 -0.140692 
-0.0709259 0.14556 -0.140434 -0.0821863 0.0618578 -0.132227 -0.00244299 0.0648812 -0.130303 
-0.131278 0.0775729 -0.133523 -0.00573042 0.0844364 -0.13012 -0.098869 0.0991499 -0.132274 
-0.00150221 0.153877 -0.13378 -0.139754 0.155457 -0.133216 -0.136456 0.0603546 -0.127128 
-0.11939 0.0564369 -0.120122 -0.0383524 0.0804467 -0.127041 -0.0253859 0.103008 -0.123976 
-0.0230476 0.143508 -0.125867 -0.129807 0.0594656 -0.11806 -0.140567 0.0765141 -0.116922 
-0.0394591 0.0859443 -0.112566 -0.143013 0.0926997 -0.113034 -0.0328807 0.0980541 -0.115208 
-0.0606982 0.126824 -0.118951 -0.143036 0.0601209 -0.11001 -0.0995294 0.0629225 -0.106884 
-0.0570902 0.088401 -0.108025 -0.131956 0.098291 -0.111458 -0.0738753 0.138781 -0.108146 
-0.0847319 0.142546 -0.111784 -0.059279 0.157209 -0.107481 -0.0674828 0.0701159 -0.104847 
-0.0288534 0.0625502 -0.0969799 -0.142713 0.0728251 -0.0938504 -0.0279804 0.112711 -0.0955426 
-0.119893 0.192216 -0.0850834 -0.0402936 0.059002 -0.0781748 -0.139683 0.0629006 -0.0820672 
-0.0522921 0.0850304 -0.0817204 -0.107005 0.0938895 -0.0773789 -0.0731178 0.170435 -0.0813663 
-0.0164669 0.0579813 -0.0700162 -0.00371882 0.0550703 -0.067853 -0.111228 0.0736535 -0.0742662 
-0.132004 0.120421 -0.0681842 -0.0272167 0.143514 -0.0747162 -0.00372612 0.0822274 -0.0655029 
-0.0426516 0.104961 -0.0640773 -0.000657995 0.135581 -0.0612658 -0.0357913 0.139902 -0.0667378 
-0.0716054 0.0630113 -0.0582988 -0.0970177 0.124148 -0.0594448 -0.0694321 0.0619352 -0.0460496 
-0.122937 0.0778449 -0.0403419 -0.0155888 0.0811432 -0.0436517 -0.133221 0.112102 -0.0408776 
-0.000703743 0.124399 -0.043345 -0.0256414 0.0701477 -0.0367926 -0.0284066 0.140928 -0.0342467 
-0.0291738 0.0983044 -0.0284949 -0.0250235 0.153223 -0.0232583 -0.123952 0.0568038 -0.0158573 
-0.104047 0.0612329 -0.0212191 -0.0613043 0.0816448 -0.022526 -0.0108127 0.0878875 -0.0198749 
-0.131781 0.159212 -0.0186566 -0.0551509 0.156737 -0.0205461 -0.134241 0.0577579 -0.0144898 
-0.0368731 0.0657573 -0.0108902 -0.131676 0.0837631 -0.00753373 -0.105706 0.0850169 -0.00943526 
-0.131783 0.0669747 -0.00400343 -0.0897287 0.0619448 -0.00544495 -0.0397244 0.0731259 -0.0015175 
-0.0752529 0.106833 -1.22456e-06 -0.0197578 0.055069 0.00393231 -0.13831 0.0628506 0.00256897 
-0.0289868 0.0554879 0.00834395 -0.0174563 0.0685339 0.0141915 -0.012067 0.083158 0.0138344 
-0.110964 0.0876219 0.0124329 -0.0117776 0.0959573 0.0152559 -0.113916 0.0663515 0.0179537 
-0.144517 0.0729065 0.0183273 -0.122678 0.0775684 0.0155366 -0.0425897 0.101582 0.0208178 
-0.111464 0.0556683 0.0253606 -0.132334 0.068932 0.0241862 -0.131298 0.094396 0.024122 
-0.10529 0.0937234 0.0295102 -0.103888 0.162884 0.0288287 -0.120577 0.0861602 0.0337892 
-0.0202779 0.0809102 0.0426741 -0.0771256 0.0747576 0.0524738 -0.0514616 0.076695 0.0490668 
-0.141317 0.0809024 0.0456386 -0.0106401 0.0835656 0.0468049 -0.0930617 0.0888774 0.0460597 
-0.121041 0.111632 0.0496341 -0.00518387 0.128836 0.0505283 -0.0925355 0.145491 0.051343 
-0.143038 0.151129 0.0500717 -0.0308735 0.0613443 0.0568551 -0.0740066 0.13845 0.0558291 
-0.0505517 0.0555186 0.0609429 -0.118081 0.0766063 0.0675944 -0.107686 0.148634 0.0628245 
-0.054668 0.174698 0.0637134 -0.141139 0.0609691 0.0725682 -0.000154998 0.0998656 0.0752568 
-0.132342 0.137754 0.0732735 -0.0784409 0.183591 0.0772794 -0.081596 0.0590829 0.0889054 
-0.0158338 0.0637619 0.0854457 -0.139777 0.0770531 0.0889922 -0.0618736 0.0884226 0.0862926 
-0.113359 0.0674085 0.0939682 -0.0419525 0.0692272 0.0917017 -0.0199018 0.122629 0.0913221 
-0.120807 0.0741849 0.103699 -0.0308886 0.157616 0.0992344 -0.0469704 0.189948 0.0992799 
-0.108542 0.0995855 0.107848 -0.0485742 0.0750565 0.115169 -0.127878 0.115838 0.11961 
-0.00232243 0.0565279 0.123584 -0.105489 0.173593 0.124541 -0.0686313 0.194898 0.120117 
-0.125942 0.0610264 0.142184 -0.0909989 0.0730056 0.142344 -0.00116684 0.0993764 0.140599 
-0.11368 0.108846 0.13529 -0.105646 0.122124 0.136447 -0.086866 0.212062 -0.14542 
-0.0775684 0.211685 -0.145292 -0.0767623 0.217412 -0.143289 -0.0548821 0.230312 -0.146769 
-0.0417912 0.230318 -0.14677 -0.0881481 0.244268 -0.14494 -0.0782543 0.243505 -0.14431 
-0.0880285 0.251246 -0.143408 -0.0773942 0.251955 -0.144997 -0.0548956 0.273055 -0.147253 
-0.0418045 0.273062 -0.147254 -0.126374 0.378007 -0.144042 -0.0976319 0.37804 -0.144042 
-0.0874375 0.216528 -0.142209 -0.137417 0.286909 -0.141648 -0.117255 0.286909 -0.141648 
-0.137417 0.357959 -0.141648 -0.117255 0.357959 -0.141648 -0.054881 0.230553 -0.133678 
-0.0417898 0.23056 -0.133679 -0.0548944 0.273296 -0.134162 -0.0418032 0.273303 -0.134163 
-0.137417 0.286909 -0.121487 -0.117255 0.286909 -0.121487 -0.137417 0.357959 -0.121487 
-0.117255 0.357959 -0.121487 -0.119177 0.36318 -0.125267 -0.100226 0.362946 -0.125081 
-0.0949071 0.23708 -0.115707 -0.0779387 0.237174 -0.115707 -0.0950426 0.292152 -0.115585 
-0.0780741 0.292245 -0.115585 -0.0490701 0.297133 -0.114468 -0.0263149 0.297133 -0.114468 
-0.126373 0.378198 -0.1153 -0.0976317 0.378231 -0.1153 -0.0490701 0.378882 -0.114468 
-0.0263149 0.378882 -0.114468 -0.0550353 0.227538 -0.110284 -0.0415124 0.226422 -0.108813 
-0.0404522 0.27095 -0.10777 -0.0539751 0.272065 -0.109242 -0.118873 0.36309 -0.105899 
-0.100305 0.362877 -0.105898 -0.094907 0.236996 -0.0987383 -0.0779386 0.23709 -0.0987382 
-0.0948334 0.291546 -0.0986701 -0.078206 0.29182 -0.0986651 -0.0973314 0.296162 -0.099733 
-0.0752332 0.295982 -0.0997379 -0.0383763 0.309885 -0.0982896 -0.0512432 0.322047 -0.10204 
-0.0971225 0.373275 -0.0997867 -0.075365 0.373275 -0.0997867 -0.0633888 0.39576 -0.0979117 
-0.0387132 0.39576 -0.0979117 -0.0565203 0.226449 -0.0967613 -0.0429975 0.225333 -0.0952898 
-0.0554601 0.270976 -0.095719 -0.0419373 0.269861 -0.0942474 -0.0783063 0.276305 -0.096231 
-0.0597415 0.276306 -0.0962192 -0.0490701 0.297133 -0.0917129 -0.0263149 0.297133 -0.0917129 
-0.0898546 0.324692 -0.0931798 -0.0722244 0.32861 -0.0924666 -0.0783065 0.340772 -0.0962282 
-0.0764344 0.373338 -0.0902798 -0.0490701 0.378882 -0.0917129 -0.0263149 0.378882 -0.0917129 
-0.118225 0.223645 -0.0836085 -0.0295261 0.221671 -0.0895862 -0.0179567 0.221685 -0.0896289 
-0.0295467 0.258053 -0.0889335 -0.0179772 0.258066 -0.0889761 -0.0542026 0.294111 -0.0900308 
-0.127866 0.307317 -0.0832613 -0.103116 0.307325 -0.0835867 -0.0673977 0.364747 -0.0829015 
-0.127879 0.397295 -0.0832917 -0.103128 0.397303 -0.0836173 -0.123658 0.203923 -0.0810315 
-0.116725 0.205441 -0.0816454 -0.125157 0.222127 -0.0829946 -0.124647 0.223682 -0.0760618 
-0.0294679 0.221109 -0.0780175 -0.0178984 0.221122 -0.0780602 -0.117716 0.225524 -0.0766774 
-0.0294884 0.25749 -0.0773646 -0.017919 0.257504 -0.0774075 -0.0942646 0.276164 -0.0821385 
-0.0814132 0.276647 -0.07816 -0.0724049 0.275821 -0.0816446 -0.0597532 0.276304 -0.0776546 
-0.0971225 0.295641 -0.0780292 -0.075365 0.295641 -0.0780292 -0.027267 0.31307 -0.079441 
-0.00231679 0.312876 -0.0792815 -0.0506058 0.318547 -0.0803817 -0.0597534 0.340771 -0.0776519 
-0.0942646 0.341454 -0.0821385 -0.0755003 0.341454 -0.0821385 -0.0971225 0.373275 -0.0780292 
-0.075365 0.373275 -0.0780292 -0.0267734 0.39516 -0.0790577 -0.00267014 0.395235 -0.0789148 
-0.123148 0.205478 -0.0740987 -0.116213 0.206672 -0.0747108 -0.076295 0.294273 -0.06781 
-0.0541384 0.294324 -0.0678742 -0.0648229 0.310137 -0.0744504 -0.0383763 0.309904 -0.0729391 
-0.0763703 0.373551 -0.0681233 -0.0542137 0.373603 -0.0681876 -0.0633888 0.395756 -0.0732372 
-0.0387131 0.395756 -0.0732372 -0.10731 0.206779 -0.0673483 -0.107823 0.206822 -0.0601646 
-0.100127 0.206381 -0.0669237 -0.106854 0.226255 -0.0673906 -0.107367 0.226298 -0.0602068 
-0.09967 0.225857 -0.0669659 -0.0942646 0.276164 -0.0633742 -0.0755003 0.276164 -0.0633742 
-0.0941615 0.296955 -0.0625258 -0.0710072 0.296955 -0.0625258 -0.0218486 0.30154 -0.0612272 
-0.000291564 0.304237 -0.0665353 -0.0659366 0.317508 -0.0624884 -0.0399887 0.317508 -0.0624884 
-0.0942646 0.341454 -0.0633742 -0.0755003 0.341454 -0.0633742 -0.0941615 0.38036 -0.0625444 
-0.0710072 0.38036 -0.0625444 -0.0246539 0.392561 -0.0667167 -0.000302485 0.392569 -0.0665932 
-0.0649005 0.391756 -0.0614522 -0.0410248 0.391756 -0.0614522 -0.10064 0.206424 -0.05974 
-0.100183 0.225899 -0.0597822 -0.127541 0.307337 -0.0585106 -0.10279 0.307346 -0.0588362 
-0.0274266 0.313215 -0.0544908 -0.00527072 0.31571 -0.059763 -0.127553 0.397315 -0.0585412 
-0.102803 0.397324 -0.0588666 -0.0269224 0.395101 -0.0549759 -0.00283189 0.395176 -0.0548115 
-0.0880313 0.203239 -0.0417574 -0.0813438 0.203585 -0.0414538 -0.088363 0.220344 -0.0420775 
-0.0816753 0.22069 -0.0417739 -0.0383023 0.257313 -0.042206 -0.114329 0.282355 -0.0426805 
-0.0943678 0.282355 -0.0426805 -0.13886 0.298042 -0.0420697 -0.116305 0.298042 -0.0420697 
-0.0941615 0.296978 -0.0393706 -0.0710072 0.296978 -0.0393706 -0.0247666 0.304268 -0.0423072 
-0.000414824 0.304277 -0.0421839 -0.0368797 0.314798 -0.0406168 -0.114329 0.352582 -0.0426805 
-0.0943678 0.352582 -0.0426805 -0.13886 0.378963 -0.0420689 -0.116305 0.378963 -0.0420689 
-0.0941615 0.380363 -0.0393909 -0.0710072 0.380363 -0.0393909 -0.0247775 0.392602 -0.042365 
-0.000425719 0.392608 -0.0422417 -0.0649005 0.391756 -0.0375766 -0.0410248 0.391756 -0.0375766 
-0.0883402 0.203575 -0.0350697 -0.0816526 0.203921 -0.0347661 -0.0886718 0.22068 -0.0353899 
-0.081984 0.221026 -0.0350863 -0.0626223 0.279419 -0.0345618 -0.0426607 0.279641 -0.0345237 
-0.0278307 0.308132 -0.0336494 -0.0659366 0.317508 -0.0365404 -0.0399887 0.317508 -0.0365404 
-0.0628273 0.349729 -0.0345237 -0.0428659 0.349786 -0.0345619 -0.00856044 0.201403 -0.0285109 
[...]
POINT_DATA 1282
FIELD FieldData 8
id 1 1282 int
3781 3801 3749 3970 3894 3745 3730 3789 3994 
3744 2648 3927 2739 3985 3917 3858 3359 3023 
2755 2901 3952 3937 3738 3785 3852 3823 3296 
3981 3024 3931 3685 3908 3932 3180 3808 3966 
3844 3586 3773 3987 3960 3360 3877 3135 3830 
3961 3805 3716 3896 3244 3943 3242 3809 3903 
3731 3939 3918 3727 3757 3920 2824 3714 3879 
3814 2484 3885 3853 3938 3787 3815 3873 3182 
3975 3297 3831 3971 3746 3786 2961 3919 3925 
3962 3847 3782 3906 2482 3720 3688 2902 3954 
3836 3982 3825 3950 3988 3803 3940 3911 3788 
3854 3587 3775 3955 3719 3686 3909 3747 3996 
3406 3631 2823 3765 3760 3461 3910 3761 3768 
3871 3864 3968 3863 2550 3325 3721 2509 3997 
3941 3136 3776 3977 3632 3963 3689 3729 3969 
3875 3956 4866 4870 4871 4794 4798 4868 4872 
4869 4865 4796 4800 4018 4022 4867 4442 4446 
4444 4448 4795 4799 4797 4793 4443 4447 4445 
4441 4020 4024 4690 4694 4692 4696 4226 4230 
4019 4023 4228 4232 4786 4790 4792 4788 4021 
4017 4691 4695 4693 4689 4330 4334 4046 4042 
4332 4336 4044 4048 4787 4791 4789 4785 4602 
4606 4227 4231 4605 4608 4604 4284 4229 4225 
4928 4850 4854 4852 4856 4286 4084 4088 4288 
4086 4090 4922 4926 4924 4925 4851 4855 4921 
4853 4849 4594 4598 4603 4607 4331 4335 4058 
4062 4043 4601 4596 4600 4333 4329 4060 4064 
4923 4927 4283 4287 4282 4047 4285 4281 4045 
4041 4914 4915 4918 4916 4917 4920 4595 4599 
4194 4198 4138 4142 4026 4030 4597 4593 4196 
4200 4140 4144 4028 4032 4919 4913 4085 4089 
4059 4063 4087 4091 4061 4057 4938 4942 4940 
4944 4658 4475 4479 4258 4262 4195 4199 4139 
4143 4660 4477 4481 4260 4264 4197 4193 4141 
4137 4029 4025 4939 4943 4941 4937 4483 4487 
4092 4027 4031 4485 4474 4954 4955 4956 4957 
4659 4578 4582 4476 4480 4096 4661 4580 4584 
4478 4482 4094 4074 4259 4263 4076 4261 4257 
4078 4095 4579 4583 4093 4581 4577 4080 4882 
4075 4082 4073 4884 4362 4366 4077 4364 4368 
4079 4083 4883 4885 4346 4350 4081 4348 4352 
4674 4678 4162 4166 4676 4680 4164 4168 4363 
4367 4484 4488 4318 4486 4473 4365 4361 4012 
4962 4966 4964 4968 4634 4638 4675 4679 4347 
4351 4314 4354 4636 4640 4270 4677 4673 4349 
4345 4316 4320 4356 4008 4963 4967 4965 4961 
4498 4266 4146 4150 4163 4167 4034 4038 4268 
4272 4152 4148 4165 4161 4036 4040 4730 4734 
4639 4635 4315 4732 4736 4355 4115 4119 4637 
4633 4035 4269 4004 4313 4117 4002 4068 4072 
4121 4154 4158 4319 4500 4005 4317 4357 4156 
4160 4006 4770 4774 4731 4735 4499 4234 4772 
4776 4238 4733 4729 4066 4267 4070 4210 4271 
4214 4147 4127 4151 4071 4001 4389 4039 4236 
4240 4212 4265 4216 4125 4149 4114 4037 4033 
4771 4775 4530 4534 4387 4391 4773 4769 4159 
4067 4123 4536 4393 4145 4069 4065 4450 4454 
4586 4590 4418 4422 4155 4116 4120 4124 4452 
4456 4532 4128 4501 4420 4424 4157 4153 4118 
4003 4007 4122 4531 4535 4235 4388 4392 4239 
4211 4215 4178 4182 4592 4533 4529 4394 4237 
4296 4213 4209 4233 4126 4113 4180 4184 4591 
4559 4290 4294 4338 4342 4588 4557 4561 4340 
4344 4292 4451 4455 4587 4506 4510 4555 4419 
4423 4395 4399 4453 4449 4390 4589 4585 4508 
4512 4421 4417 4397 4386 4611 4615 4291 4295 
4724 4179 4183 4613 4293 4289 4181 4177 4826 
4830 4623 4738 4742 4722 4726 4556 4560 4400 
4740 4744 4339 4343 4610 4728 4617 4396 4050 
4558 4562 4398 4385 4341 4337 4052 4874 4878 
4619 4810 4814 4621 4828 4832 4812 4816 4612 
4616 4507 4511 4725 4614 4618 4509 4505 4875 
4879 4827 4831 4624 4876 4880 4739 4743 4723 
4727 4741 4737 4721 4620 4811 4877 4622 4815 
4873 4829 4564 4825 4568 4813 4809 4563 4567 
4609 4051 4566 4553 4055 4565 4554 4053 3899 
3849 3161 3440 3818 3838 3784 3811 3876 3405 
3972 3934 3755 3945 3762 3860 3025 3742 3779 
2591 3900 3778 3828 3263 3717 2481 3957 3741 
3978 3964 3856 3922 2927 2989 3806 3711 3867 
3888 3869 3723 3441 3737 2483 3819 3850 3797 
3324 3614 3712 3881 3851 3162 3766 3812 3890 
2751 3691 3665 3914 3208 2962 3758 3991 3771 
3840 2748 3770 3889 3946 2690 3995 3791 2749 
3732 3442 3668 3764 3777 3870 3385 3820 3718 
3692 3763 3999 3913 3848 3693 3916 3993 5003 
3444 3979 3974 2963 3923 2790 3998 3924 3772 
3667 3613 2928 3947 3750 3857 3739 3790 3715 
3810 3892 3751 3835 3443 3935 3298 3861 3846 
3733 3833 3958 3800 3936 3754 2753 3872 3902 
3967 3926 3798 3725 3930 3326 2868 3792 3843 
3883 3774 4902 4898 4904 4900 4714 4718 4716 
4720 4903 4899 4897 4901 4717 4713 4996 5000 
4834 4838 4715 4840 4719 4836 4626 4630 4628 
4632 4997 4993 4515 4519 4517 4521 4835 4839 
4833 4837 4631 4402 4406 4625 4404 4408 4972 
4976 4974 4978 4627 4629 4973 4977 4975 4979 
4702 4516 4520 4523 4527 4700 4704 4525 4514 
4518 4522 4698 4403 4407 4405 4401 4984 4980 
4986 4982 4426 4430 4524 4528 4526 4513 4428 
4432 4985 4981 4987 4983 4754 4758 4699 4703 
4756 4760 4701 4697 4755 4759 4766 4427 4490 
4431 4494 4370 4753 4768 4757 4374 4298 4302 
4429 4492 4425 4496 4372 4376 4300 4304 4890 
4894 4892 4896 4762 4491 4495 4764 4202 4206 
4493 4489 4204 4208 4946 4950 4891 4895 4948 
4952 4893 4889 4763 4767 4686 4682 4550 4546 
4458 4462 4371 4375 4688 4299 4684 4548 4552 
4460 4373 4369 4951 4947 4945 4949 4662 4761 
4765 4303 4664 4464 4301 4297 4666 4670 4547 
4551 4459 4463 4203 4685 4207 4681 4668 4672 
4549 4545 4457 4461 4205 4201 4958 4959 4988 
4989 4992 4971 4960 4953 4990 4970 4864 4663 
4683 4687 4642 4657 4644 4648 4858 4862 4991 
4969 4860 4646 4667 4671 4669 4665 4859 4863 
4861 4857 4647 4643 4645 4641 4994 4998 4995 
4999 5004 5008 4886 4888 5005 5001 4887 4802 
4806 4881 4808 4804 4650 4654 4652 4656 4803 
4807 4805 4801 4306 4308 4010 4014 4746 4750 
4382 4651 4655 4378 4748 4752 4310 4653 4649 
4380 4384 4312 4358 4360 4016 4747 4751 4706 
4710 4749 4502 4745 4540 4307 4311 4186 4708 
4712 4309 4192 4305 4379 4383 4190 4377 4381 
4188 4013 4009 4707 4711 4243 4247 4103 4709 
4504 4185 4353 4245 4249 4011 4015 4101 4105 
4503 4359 4544 4705 4324 4328 4538 4542 4410 
4414 4322 4326 4187 4191 4099 4412 4416 4189 
4244 4248 4100 4104 4497 4250 4246 4102 4106 
4906 4910 4908 4912 4539 4543 4434 4438 4541 
4537 4436 4440 4325 4321 4907 4911 4909 4905 
4411 4415 4323 4327 4130 4134 4413 4409 4132 
4136 4218 4222 4255 4433 4220 4224 4253 4242 
4818 4822 4820 4824 4435 4439 4170 4174 4251 
4437 4172 4176 4842 4846 4844 4848 4466 4470 
4054 4276 4468 4472 4056 4930 4934 4932 4936 
4819 4778 4823 4782 4821 4817 4784 4274 4278 
4570 4574 4219 4223 4252 4256 4107 4111 4131 
4135 4572 4576 4280 4221 4217 4254 4241 4133 
4129 4109 4098 4931 4935 4843 4847 4933 4929 
4783 4845 4841 4780 4171 4175 4277 4173 4169 
4779 4777 4275 4279 4571 4575 4781 4467 4471 
4108 4112 4573 4569 4273 4469 4465 4110 4097 
4049 5002 5006 5007 
type 1 1282 int
2 2 2 2 2 2 2 2 2 
2 2 2 2 2 2 2 2 2 
2 2 2 2 2 2 2 2 2 
2 2 2 2 2 2 2 2 2 
2 2 2 2 2 2 2 2 2 
2 2 2 2 2 2 2 2 2 
2 2 2 2 2 2 2 2 2 
2 2 2 2 2 2 2 2 2 
2 2 2 2 2 2 2 2 2 
2 2 2 2 2 2 2 2 2 
2 2 2 2 2 2 2 2 2 
2 2 2 2 2 2 2 2 2 
2 2 2 2 2 2 2 2 2 
2 2 2 2 2 2 2 2 2 
2 2 2 2 2 2 2 2 2 
2 2 2 2 2 2 2 2 2 
2 2 2 2 2 2 2 2 2 
2 2 2 2 2 2 2 2 2 
2 2 2 2 2 2 2 2 2 
2 2 2 2 2 2 2 2 2 
2 2 2 2 2 2 2 2 2 
2 2 2 2 2 2 2 2 2 
2 2 2 2 2 2 2 2 2 
2 2 2 2 2 2 2 2 2 
2 2 2 2 2 2 2 2 2 
2 2 2 2 2 2 2 2 2 
2 2 2 2 2 2 2 2 2 
2 2 2 2 2 2 2 2 2 
2 2 2 2 2 2 2 2 2 
2 2 2 2 2 2 2 2 2 
2 2 2 2 2 2 2 2 2 
2 2 2 2 2 2 2 2 2 
2 2 2 2 2 2 2 2 2 
2 2 2 2 2 2 2 2 2 
2 2 2 2 2 2 2 2 2 
2 2 2 2 2 2 2 2 2 
2 2 2 2 2 2 2 2 2 
2 2 2 2 2 2 2 2 2 
2 2 2 2 2 2 2 2 2 
2 2 2 2 2 2 2 2 2 
2 2 2 2 2 2 2 2 2 
2 2 2 2 2 2 2 2 2 
2 2 2 2 2 2 2 2 2 
2 2 2 2 2 2 2 2 2 
2 2 2 2 2 2 2 2 2 
2 2 2 2 2 2 2 2 2 
2 2 2 2 2 2 2 2 2 
2 2 2 2 2 2 2 2 2 
2 2 2 2 2 2 2 2 2 
2 2 2 2 2 2 2 2 2 
2 2 2 2 2 2 2 2 2 
2 2 2 2 2 2 2 2 2 
2 2 2 2 2 2 2 2 2 
2 2 2 2 2 2 2 2 2 
2 2 2 2 2 2 2 2 2 
2 2 2 2 2 2 2 2 2 
2 2 2 2 2 2 2 2 2 
2 2 2 2 2 2 2 2 2 
2 2 2 2 2 2 2 2 2 
2 2 2 2 2 2 2 2 2 
2 2 2 2 2 2 2 2 2 
2 2 2 2 2 2 2 2 2 
2 2 2 2 2 2 2 2 2 
2 2 2 2 2 2 2 2 2 
2 2 2 2 2 2 2 2 2 
2 2 2 2 2 2 2 2 2 
2 2 2 2 2 2 2 2 2 
2 2 2 2 2 2 2 2 2 
2 2 2 2 2 2 2 2 2 
2 2 2 2 2 2 2 2 2 
2 2 2 2 2 2 2 2 2 
2 2 2 2 2 2 2 2 2 
2 2 2 2 2 2 2 2 2 
2 2 2 2 2 2 2 2 2 
2 2 2 2 2 2 2 2 2 
2 2 2 2 2 2 2 2 2 
2 2 2 2 2 2 2 2 2 
2 2 2 2 2 2 2 2 2 
2 2 2 2 2 2 2 2 2 
2 2 2 2 2 2 2 2 2 
2 2 2 2 2 2 2 2 2 
2 2 2 2 2 2 2 2 2 
2 2 2 2 2 2 2 2 2 
2 2 2 2 2 2 2 2 2 
2 2 2 2 2 2 2 2 2 
2 2 2 2 2 2 2 2 2 
2 2 2 2 2 2 2 2 2 
2 2 2 2 2 2 2 2 2 
2 2 2 2 2 2 2 2 2 
2 2 2 2 2 2 2 2 2 
2 2 2 2 2 2 2 2 2 
2 2 2 2 2 2 2 2 2 
2 2 2 2 2 2 2 2 2 
2 2 2 2 2 2 2 2 2 
2 2 2 2 2 2 2 2 2 
2 2 2 2 2 2 2 2 2 
2 2 2 2 2 2 2 2 2 
2 2 2 2 2 2 2 2 2 
2 2 2 2 2 2 2 2 2 
2 2 2 2 2 2 2 2 2 
2 2 2 2 2 2 2 2 2 
2 2 2 2 2 2 2 2 2 
2 2 2 2 2 2 2 2 2 
2 2 2 2 2 2 2 2 2 
2 2 2 2 2 2 2 2 2 
2 2 2 2 2 2 2 2 2 
2 2 2 2 2 2 2 2 2 
2 2 2 2 2 2 2 2 2 
2 2 2 2 2 2 2 2 2 
2 2 2 2 2 2 2 2 2 
2 2 2 2 2 2 2 2 2 
2 2 2 2 2 2 2 2 2 
2 2 2 2 2 2 2 2 2 
2 2 2 2 2 2 2 2 2 
2 2 2 2 2 2 2 2 2 
2 2 2 2 2 2 2 2 2 
2 2 2 2 2 2 2 2 2 
2 2 2 2 2 2 2 2 2 
2 2 2 2 2 2 2 2 2 
2 2 2 2 2 2 2 2 2 
2 2 2 2 2 2 2 2 2 
2 2 2 2 2 2 2 2 2 
2 2 2 2 2 2 2 2 2 
2 2 2 2 2 2 2 2 2 
2 2 2 2 2 2 2 2 2 
2 2 2 2 2 2 2 2 2 
2 2 2 2 2 2 2 2 2 
2 2 2 2 2 2 2 2 2 
2 2 2 2 2 2 2 2 2 
2 2 2 2 2 2 2 2 2 
2 2 2 2 2 2 2 2 2 
2 2 2 2 2 2 2 2 2 
2 2 2 2 2 2 2 2 2 
2 2 2 2 2 2 2 2 2 
2 2 2 2 2 2 2 2 2 
2 2 2 2 2 2 2 2 2 
2 2 2 2 2 2 2 2 2 
2 2 2 2 2 2 2 2 2 
2 2 2 2 2 2 2 2 2 
2 2 2 2 2 2 2 2 2 
2 2 2 2 2 2 2 2 2 
2 2 2 2 2 2 2 2 2 
2 2 2 2 
i 3 1282 int
0 0 0 0 0 0 0 0 0 
0 0 0 0 0 0 0 0 0 
0 0 0 0 0 0 0 0 0 
0 0 0 0 0 0 0 0 0 
0 0 0 0 0 0 0 0 0 
0 0 0 0 0 0 0 0 0 
0 0 0 0 0 0 0 0 0 
0 0 0 0 0 0 0 0 0 
0 0 0 0 0 0 0 0 0 
0 0 0 0 0 0 0 0 0 
0 0 0 0 0 0 0 0 0 
0 0 0 0 0 0 0 0 0 
0 0 0 0 0 0 0 0 0 
0 0 0 0 0 0 0 0 0 
0 0 0 0 0 0 0 0 0 
0 0 0 0 0 0 0 0 0 
0 0 0 0 0 0 0 0 0 
0 0 0 0 0 0 0 0 0 
0 0 0 0 0 0 0 0 0 
0 0 0 0 0 0 0 0 0 
0 0 0 0 0 0 0 0 0 
0 0 0 0 0 0 0 0 0 
0 0 0 0 0 0 0 0 0 
0 0 0 0 0 0 0 0 0 
0 0 0 0 0 0 0 0 0 
0 0 0 0 0 0 0 0 0 
0 0 0 0 0 0 0 0 0 
0 0 0 0 0 0 0 0 0 
0 0 0 0 0 0 0 0 0 
0 0 0 0 0 0 0 0 0 
0 0 0 0 0 0 0 0 0 
0 0 0 0 0 0 0 0 0 
0 0 0 0 0 0 0 0 0 
0 0 0 0 0 0 0 0 0 
0 0 0 0 0 0 0 0 0 
0 0 0 0 0 0 0 0 0 
0 0 0 0 0 0 0 0 0 
0 0 0 0 0 0 0 0 0 
0 0 0 0 0 0 0 0 0 
0 0 0 0 0 0 0 0 0 
0 0 0 0 0 0 0 0 0 
0 0 0 0 0 0 0 0 0 
0 0 0 0 0 0 0 0 0 
0 0 0 0 0 0 0 0 0 
0 0 0 0 0 0 0 0 0 
0 0 0 0 0 0 0 0 0 
0 0 0 0 0 0 0 0 0 
0 0 0 0 0 0 0 0 0 
0 0 0 0 0 0 0 0 0 
0 0 0 0 0 0 0 0 0 
0 0 0 0 0 0 0 0 0 
0 0 0 0 0 0 0 0 0 
0 0 0 0 0 0 0 0 0 
0 0 0 0 0 0 0 0 0 
0 0 0 0 0 0 0 0 0 
0 0 0 0 0 0 0 0 0 
0 0 0 0 0 0 0 0 0 
0 0 0 0 0 0 0 0 0 
0 0 0 0 0 0 0 0 0 
0 0 0 0 0 0 0 0 0 
0 0 0 0 0 0 0 0 0 
0 0 0 0 0 0 0 0 0 
0 0 0 0 0 0 0 0 0 
0 0 0 0 0 0 0 0 0 
0 0 0 0 0 0 0 0 0 
0 0 0 0 0 0 0 0 0 
0 0 0 0 0 0 0 0 0 
0 0 0 0 0 0 0 0 0 
0 0 0 0 0 0 0 0 0 
0 0 0 0 0 0 0 0 0 
0 0 0 0 0 0 0 0 0 
0 0 0 0 0 0 0 0 0 
0 0 0 0 0 0 0 0 0 
0 0 0 0 0 0 0 0 0 
0 0 0 0 0 0 0 0 0 
0 0 0 0 0 0 0 0 0 
0 0 0 0 0 0 0 0 0 
0 0 0 0 0 0 0 0 0 
0 0 0 0 0 0 0 0 0 
0 0 0 0 0 0 0 0 0 
0 0 0 0 0 0 0 0 0 
0 0 0 0 0 0 0 0 0 
0 0 0 0 0 0 0 0 0 
0 0 0 0 0 0 0 0 0 
0 0 0 0 0 0 0 0 0 
0 0 0 0 0 0 0 0 0 
0 0 0 0 0 0 0 0 0 
0 0 0 0 0 0 0 0 0 
0 0 0 0 0 0 0 0 0 
0 0 0 0 0 0 0 0 0 
0 0 0 0 0 0 0 0 0 
0 0 0 0 0 0 0 0 0 
0 0 0 0 0 0 0 0 0 
0 0 0 0 0 0 0 0 0 
0 0 0 0 0 0 0 0 0 
0 0 0 0 0 0 0 0 0 
0 0 0 0 0 0 0 0 0 
0 0 0 0 0 0 0 0 0 
0 0 0 0 0 0 0 0 0 
0 0 0 0 0 0 0 0 0 
0 0 0 0 0 0 0 0 0 
0 0 0 0 0 0 0 0 0 
0 0 0 0 0 0 0 0 0 
0 0 0 0 0 0 0 0 0 
0 0 0 0 0 0 0 0 0 
0 0 0 0 0 0 0 0 0 
0 0 0 0 0 0 0 0 0 
0 0 0 0 0 0 0 0 0 
0 0 0 0 0 0 0 0 0 
0 0 0 0 0 0 0 0 0 
0 0 0 0 0 0 0 0 0 
0 0 0 0 0 0 0 0 0 
0 0 0 0 0 0 0 0 0 
0 0 0 0 0 0 0 0 0 
0 0 0 0 0 0 0 0 0 
0 0 0 0 0 0 0 0 0 
0 0 0 0 0 0 0 0 0 
0 0 0 0 0 0 0 0 0 
0 0 0 0 0 0 0 0 0 
0 0 0 0 0 0 0 0 0 
0 0 0 0 0 0 0 0 0 
0 0 0 0 0 0 0 0 0 
0 0 0 0 0 0 0 0 0 
0 0 0 0 0 0 0 0 0 
0 0 0 0 0 0 0 0 0 
0 0 0 0 0 0 0 0 0 
0 0 0 0 0 0 0 0 0 
0 0 0 0 0 0 0 0 0 
0 0 0 0 0 0 0 0 0 
0 0 0 0 0 0 0 0 0 
0 0 0 0 0 0 0 0 0 
0 0 0 0 0 0 0 0 0 
0 0 0 0 0 0 0 0 0 
0 0 0 0 0 0 0 0 0 
0 0 0 0 0 0 0 0 0 
0 0 0 0 0 0 0 0 0 
0 0 0 0 0 0 0 0 0 
0 0 0 0 0 0 0 0 0 
0 0 0 0 0 0 0 0 0 
0 0 0 0 0 0 0 0 0 
0 0 0 0 0 0 0 0 0 
0 0 0 0 0 0 0 0 0 
0 0 0 0 0 0 0 0 0 
0 0 0 0 0 0 0 0 0 
0 0 0 0 0 0 0 0 0 
0 0 0 0 0 0 0 0 0 
0 0 0 0 0 0 0 0 0 
0 0 0 0 0 0 0 0 0 
0 0 0 0 0 0 0 0 0 
0 0 0 0 0 0 0 0 0 
0 0 0 0 0 0 0 0 0 
0 0 0 0 0 0 0 0 0 
0 0 0 0 0 0 0 0 0 
0 0 0 0 0 0 0 0 0 
0 0 0 0 0 0 0 0 0 
0 0 0 0 0 0 0 0 0 
0 0 0 0 0 0 0 0 0 
0 0 0 0 0 0 0 0 0 
0 0 0 0 0 0 0 0 0 
0 0 0 0 0 0 0 0 0 
0 0 0 0 0 0 0 0 0 
0 0 0 0 0 0 0 0 0 
0 0 0 0 0 0 0 0 0 
0 0 0 0 0 0 0 0 0 
0 0 0 0 0 0 0 0 0 
0 0 0 0 0 0 0 0 0 
0 0 0 0 0 0 0 0 0 
0 0 0 0 0 0 0 0 0 
0 0 0 0 0 0 0 0 0 
0 0 0 0 0 0 0 0 0 
0 0 0 0 0 0 0 0 0 
0 0 0 0 0 0 0 0 0 
0 0 0 0 0 0 0 0 0 
0 0 0 0 0 0 0 0 0 
0 0 0 0 0 0 0 0 0 
0 0 0 0 0 0 0 0 0 
0 0 0 0 0 0 0 0 0 
0 0 0 0 0 0 0 0 0 
0 0 0 0 0 0 0 0 0 
0 0 0 0 0 0 0 0 0 
0 0 0 0 0 0 0 0 0 
0 0 0 0 0 0 0 0 0 
0 0 0 0 0 0 0 0 0 
0 0 0 0 0 0 0 0 0 
0 0 0 0 0 0 0 0 0 
0 0 0 0 0 0 0 0 0 
0 0 0 0 0 0 0 0 0 
0 0 0 0 0 0 0 0 0 
0 0 0 0 0 0 0 0 0 
0 0 0 0 0 0 0 0 0 
0 0 0 0 0 0 0 0 0 
0 0 0 0 0 0 0 0 0 
0 0 0 0 0 0 0 0 0 
0 0 0 0 0 0 0 0 0 
0 0 0 0 0 0 0 0 0 
0 0 0 0 0 0 0 0 0 
0 0 0 0 0 0 0 0 0 
0 0 0 0 0 0 0 0 0 
0 0 0 0 0 0 0 0 0 
0 0 0 0 0 0 0 0 0 
0 0 0 0 0 0 0 0 0 
0 0 0 0 0 0 0 0 0 
0 0 0 0 0 0 0 0 0 
0 0 0 0 0 0 0 0 0 
0 0 0 0 0 0 0 0 0 
0 0 0 0 0 0 0 0 0 
0 0 0 0 0 0 0 0 0 
0 0 0 0 0 0 0 0 0 
0 0 0 0 0 0 0 0 0 
0 0 0 0 0 0 0 0 0 
0 0 0 0 0 0 0 0 0 
0 0 0 0 0 0 0 0 0 
0 0 0 0 0 0 0 0 0 
0 0 0 0 0 0 0 0 0 
0 0 0 0 0 0 0 0 0 
0 0 0 0 0 0 0 0 0 
0 0 0 0 0 0 0 0 0 
0 0 0 0 0 0 0 0 0 
0 0 0 0 0 0 0 0 0 
0 0 0 0 0 0 0 0 0 
0 0 0 0 0 0 0 0 0 
0 0 0 0 0 0 0 0 0 
0 0 0 0 0 0 0 0 0 
0 0 0 0 0 0 0 0 0 
0 0 0 0 0 0 0 0 0 
0 0 0 0 0 0 0 0 0 
0 0 0 0 0 0 0 0 0 
0 0 0 0 0 0 0 0 0 
0 0 0 0 0 0 0 0 0 
0 0 0 0 0 0 0 0 0 
0 0 0 0 0 0 0 0 0 
0 0 0 0 0 0 0 0 0 
0 0 0 0 0 0 0 0 0 
0 0 0 0 0 0 0 0 0 
0 0 0 0 0 0 0 0 0 
0 0 0 0 0 0 0 0 0 
0 0 0 0 0 0 0 0 0 
0 0 0 0 0 0 0 0 0 
0 0 0 0 0 0 0 0 0 
0 0 0 0 0 0 0 0 0 
0 0 0 0 0 0 0 0 0 
0 0 0 0 0 0 0 0 0 
0 0 0 0 0 0 0 0 0 
0 0 0 0 0 0 0 0 0 
0 0 0 0 0 0 0 0 0 
0 0 0 0 0 0 0 0 0 
0 0 0 0 0 0 0 0 0 
0 0 0 0 0 0 0 0 0 
0 0 0 0 0 0 0 0 0 
0 0 0 0 0 0 0 0 0 
0 0 0 0 0 0 0 0 0 
0 0 0 0 0 0 0 0 0 
0 0 0 0 0 0 0 0 0 
0 0 0 0 0 0 0 0 0 
0 0 0 0 0 0 0 0 0 
0 0 0 0 0 0 0 0 0 
0 0 0 0 0 0 0 0 0 
0 0 0 0 0 0 0 0 0 
0 0 0 0 0 0 0 0 0 
0 0 0 0 0 0 0 0 0 
0 0 0 0 0 0 0 0 0 
0 0 0 0 0 0 0 0 0 
0 0 0 0 0 0 0 0 0 
0 0 0 0 0 0 0 0 0 
0 0 0 0 0 0 0 0 0 
0 0 0 0 0 0 0 0 0 
0 0 0 0 0 0 0 0 0 
0 0 0 0 0 0 0 0 0 
0 0 0 0 0 0 0 0 0 
0 0 0 0 0 0 0 0 0 
0 0 0 0 0 0 0 0 0 
0 0 0 0 0 0 0 0 0 
0 0 0 0 0 0 0 0 0 
0 0 0 0 0 0 0 0 0 
0 0 0 0 0 0 0 0 0 
0 0 0 0 0 0 0 0 0 
0 0 0 0 0 0 0 0 0 
0 0 0 0 0 0 0 0 0 
0 0 0 0 0 0 0 0 0 
0 0 0 0 0 0 0 0 0 
0 0 0 0 0 0 0 0 0 
0 0 0 0 0 0 0 0 0 
0 0 0 0 0 0 0 0 0 
0 0 0 0 0 0 0 0 0 
0 0 0 0 0 0 0 0 0 
0 0 0 0 0 0 0 0 0 
0 0 0 0 0 0 0 0 0 
0 0 0 0 0 0 0 0 0 
0 0 0 0 0 0 0 0 0 
0 0 0 0 0 0 0 0 0 
0 0 0 0 0 0 0 0 0 
0 0 0 0 0 0 0 0 0 
0 0 0 0 0 0 0 0 0 
0 0 0 0 0 0 0 0 0 
0 0 0 0 0 0 0 0 0 
0 0 0 0 0 0 0 0 0 
0 0 0 0 0 0 0 0 0 
0 0 0 0 0 0 0 0 0 
0 0 0 0 0 0 0 0 0 
0 0 0 0 0 0 0 0 0 
0 0 0 0 0 0 0 0 0 
0 0 0 0 0 0 0 0 0 
0 0 0 0 0 0 0 0 0 
0 0 0 0 0 0 0 0 0 
0 0 0 0 0 0 0 0 0 
0 0 0 0 0 0 0 0 0 
0 0 0 0 0 0 0 0 0 
0 0 0 0 0 0 0 0 0 
0 0 0 0 0 0 0 0 0 
0 0 0 0 0 0 0 0 0 
0 0 0 0 0 0 0 0 0 
0 0 0 0 0 0 0 0 0 
0 0 0 0 0 0 0 0 0 
0 0 0 0 0 0 0 0 0 
0 0 0 0 0 0 0 0 0 
0 0 0 0 0 0 0 0 0 
0 0 0 0 0 0 0 0 0 
0 0 0 0 0 0 0 0 0 
0 0 0 0 0 0 0 0 0 
0 0 0 0 0 0 0 0 0 
0 0 0 0 0 0 0 0 0 
0 0 0 0 0 0 0 0 0 
0 0 0 0 0 0 0 0 0 
0 0 0 0 0 0 0 0 0 
0 0 0 0 0 0 0 0 0 
0 0 0 0 0 0 0 0 0 
0 0 0 0 0 0 0 0 0 
0 0 0 0 0 0 0 0 0 
0 0 0 0 0 0 0 0 0 
0 0 0 0 0 0 0 0 0 
0 0 0 0 0 0 0 0 0 
0 0 0 0 0 0 0 0 0 
0 0 0 0 0 0 0 0 0 
0 0 0 0 0 0 0 0 0 
0 0 0 0 0 0 0 0 0 
0 0 0 0 0 0 0 0 0 
0 0 0 0 0 0 0 0 0 
0 0 0 0 0 0 0 0 0 
0 0 0 0 0 0 0 0 0 
0 0 0 0 0 0 0 0 0 
0 0 0 0 0 0 0 0 0 
0 0 0 0 0 0 0 0 0 
0 0 0 0 0 0 0 0 0 
0 0 0 0 0 0 0 0 0 
0 0 0 0 0 0 0 0 0 
0 0 0 0 0 0 0 0 0 
0 0 0 0 0 0 0 0 0 
0 0 0 0 0 0 0 0 0 
0 0 0 0 0 0 0 0 0 
0 0 0 0 0 0 0 0 0 
0 0 0 0 0 0 0 0 0 
0 0 0 0 0 0 0 0 0 
0 0 0 0 0 0 0 0 0 
0 0 0 0 0 0 0 0 0 
0 0 0 0 0 0 0 0 0 
0 0 0 0 0 0 0 0 0 
0 0 0 0 0 0 0 0 0 
0 0 0 0 0 0 0 0 0 
0 0 0 0 0 0 0 0 0 
0 0 0 0 0 0 0 0 0 
0 0 0 0 0 0 0 0 0 
0 0 0 0 0 0 0 0 0 
0 0 0 0 0 0 0 0 0 
0 0 0 0 0 0 0 0 0 
0 0 0 0 0 0 0 0 0 
0 0 0 0 0 0 0 0 0 
0 0 0 0 0 0 0 0 0 
0 0 0 0 0 0 0 0 0 
0 0 0 0 0 0 0 0 0 
0 0 0 0 0 0 0 0 0 
0 0 0 0 0 0 0 0 0 
0 0 0 0 0 0 0 0 0 
0 0 0 0 0 0 0 0 0 
0 0 0 0 0 0 0 0 0 
0 0 0 0 0 0 0 0 0 
0 0 0 0 0 0 0 0 0 
0 0 0 0 0 0 0 0 0 
0 0 0 0 0 0 0 0 0 
0 0 0 0 0 0 0 0 0 
0 0 0 0 0 0 0 0 0 
0 0 0 0 0 0 0 0 0 
0 0 0 0 0 0 0 0 0 
0 0 0 0 0 0 0 0 0 
0 0 0 0 0 0 0 0 0 
0 0 0 0 0 0 0 0 0 
0 0 0 0 0 0 0 0 0 
0 0 0 0 0 0 0 0 0 
0 0 0 0 0 0 0 0 0 
0 0 0 0 0 0 0 0 0 
0 0 0 0 0 0 0 0 0 
0 0 0 0 0 0 0 0 0 
0 0 0 0 0 0 0 0 0 
0 0 0 0 0 0 0 0 0 
0 0 0 0 0 0 0 0 0 
0 0 0 0 0 0 0 0 0 
0 0 0 0 0 0 0 0 0 
0 0 0 0 0 0 0 0 0 
0 0 0 0 0 0 0 0 0 
0 0 0 0 0 0 0 0 0 
0 0 0 0 0 0 0 0 0 
0 0 0 0 0 0 0 0 0 
0 0 0 0 0 0 0 0 0 
0 0 0 0 0 0 0 0 0 
0 0 0 0 0 0 0 0 0 
0 0 0 0 0 0 0 0 0 
0 0 0 0 0 0 0 0 0 
0 0 0 0 0 0 0 0 0 
0 0 0 0 0 0 0 0 0 
0 0 0 0 0 0 0 0 0 
0 0 0 0 0 0 0 0 0 
0 0 0 0 0 0 0 0 0 
0 0 0 0 0 0 0 0 0 
0 0 0 0 0 0 0 0 0 
0 0 0 0 0 0 0 0 0 
0 0 0 0 0 0 0 0 0 
0 0 0 0 0 0 0 0 0 
0 0 0 0 0 0 0 0 0 
0 0 0 0 0 0 0 0 0 
0 0 0 0 0 0 0 0 0 
0 0 0 0 0 0 0 0 0 
0 0 0 0 0 0 0 0 0 
0 0 0 0 0 0 0 0 0 
0 0 0 0 0 0 0 0 0 
0 0 0 0 0 0 0 0 0 
0 0 0 0 0 0 0 0 0 
0 0 0 0 0 0 0 0 0 
0 0 0 0 0 0 0 0 0 
0 0 0 
v 3 1282 double
0.0080156891962 -0.0015029605931 0.004447886628 0.010048934566 -0.00070430313784 0.0034683114765 -0.15472652587 0.054371164332 0.017807489663 
0.012125191564 0.042760091265 -0.048949172553 0.0015701205898 -4.843480566e-05 -0.032346434743 -0.0056303209371 0.0085283445581 0.016039859049 
-0.029080006669 0.04353332093 0.035337047209 -0.084222972431 0.081829535961 -0.0015657430505 -0.015970077835 0.15166809512 0.0078683031147 
0.0084999301845 0.1323890659 0.0081926522313 -0.027173646627 0.011902077028 0.021408443641 -0.01040054753 0.0058004044742 0.04555054737 
0.0086390268809 0.038845535794 -0.0015567670795 -0.13682818698 -0.005875656102 -0.051000097522 -0.078830096885 0.05744859893 0.00019912973901 
-0.015444081516 0.16804910789 -0.083079636091 -0.056515204009 0.17504659774 -0.013208176053 0.056732275107 -0.039185307936 -0.0066811744503 
-0.017899220674 0.018956035487 -0.014433201323 0.019798951085 0.040401127349 0.0076420378047 -0.073359751146 0.048740936439 0.033533506534 
0.00042695319134 0.13846042764 0.029105660503 0.00030317957686 0.049567823366 -0.018354212932 0.060759685238 0.03755201171 -0.010385692456 
-0.024108631974 0.052866387327 -0.0092589620461 -0.034900538576 0.00011741016464 0.0088745339976 0.012718550083 0.067616469755 0.01425317236 
0.096087284017 0.12261288527 -0.004294039915 -0.040629181533 0.011950981917 0.025322700445 -0.055110835015 0.016838623604 0.044337729087 
0.017418324533 0.057616216922 -0.030352324845 -0.0028608687616 0.066370333775 -0.00082771263609 0.025682621464 0.12898695416 -0.071542077916 
-0.034606769077 0.14722991151 -0.037268245218 -0.013011560337 0.21057775716 -0.067361238852 -0.1632132347 0.016458060305 -0.098071338305 
-0.023837693753 0.013424326694 0.030482934101 0.050689496961 0.0092180211168 0.0061001687398 -0.046543241901 0.073906791384 0.057776194531 
-0.031250205073 0.21919385107 0.082559184695 0.039880780314 0.026113743392 0.024039611571 -0.1093329276 0.013073293453 -0.054392005946 
-0.084078667498 0.04976864582 -0.029746205785 0.048145546629 0.065638895238 -0.073652038648 -0.02568388976 0.17898130461 0.043235618101 
-0.010802272857 0.025878103202 -0.07715799436 0.062517167846 -0.013635386895 0.0011110630362 0.047803103404 -0.019324961862 -0.018901646946 
0.042602169189 0.089323789222 -0.065956124659 -0.011140416409 0.097767829241 -0.12921837017 0.010421709988 0.032597662155 0.089304931032 
8.7304082862e-05 0.05658216547 0.0490846904 0.088817694295 0.1124998154 -0.053149249242 0.035121297983 0.12847363527 0.096812815135 