# vtk DataFile Version 5.1
Generated by LIGGGHTS
ASCII
DATASET POLYDATA
POINTS 1156 float
-0.136683 0.0559957 -0.143789 -0.139865 0.0694886 -0.143336 -0.0904445 0.0849356 -0.14293 
-0.143458 0.0608038 -0.135744 -0.119059 0.0586635 -0.137015 -0.0786537 0.0603105 -0.13501 
-0.00109092 0.0641272 -0.136224 -0.0157205 0.0758086 -0.14146 -0.00726017 0.106022 -0.13794 
-0.102783 0.122432 -0.141715 -0.0720309 0.128349 -0.141499 -0.142406 0.136929 -0.142041 
-0.0777643 0.199468 -0.138907 -0.132401 0.072523 -0.13332 -0.0409263 0.0751945 -0.128035 
-0.0886211 0.0916815 -0.1323 -0.0158492 0.0966719 -0.128336 -0.0231031 0.125509 -0.129651 
-0.143731 0.0657127 -0.12532 -0.128661 0.135658 -0.126316 -0.138755 0.058604 -0.11324 
-0.126929 0.0596068 -0.11323 -0.117821 0.0574304 -0.117995 -0.092365 0.0607335 -0.112648 
-0.13668 0.0686912 -0.115058 -0.143615 0.0910008 -0.115025 -0.0345341 0.089264 -0.117061 
-0.0731895 0.110885 -0.118393 -0.0363249 0.0790716 -0.111363 -0.126445 0.0913465 -0.110513 
-0.0825803 0.1259 -0.110343 -0.0257545 0.0608051 -0.100943 -0.134532 0.0683596 -0.0995203 
-0.0593545 0.0809109 -0.10408 -0.0219298 0.103103 -0.103054 -0.0575875 0.129834 -0.0987244 
-0.00647811 0.134649 -0.00639076 -0.107647 0.0792435 -0.00399915 -0.0462651 0.0679764 -0.0920977 
-0.0748668 0.119518 -0.0954419 -0.11583 0.163721 -0.0958161 -0.0403874 0.062924 -0.00769748 
-0.121987 0.0641567 -0.00495907 -0.0697789 0.147167 -0.0869869 -0.0454781 0.0556072 -0.0813 
-0.0413619 0.0785605 -0.0778534 -0.00508094 0.0779897 -0.0771126 -0.0403571 0.123201 -0.0793235 
-0.12547 0.061201 -0.0749962 -0.00223582 0.0551004 -0.0688318 -0.117443 0.0761657 -0.071809 
-0.0426629 0.0976049 -0.0704583 -0.0580045 0.060441 -0.0604871 -0.113264 0.0853565 -0.0678041 
-0.123738 0.18431 -0.0616561 -0.112956 0.184025 -0.0602191 -0.0245721 0.056528 -0.0591908 
-0.0278502 0.0767566 -0.0554819 -0.137543 0.108809 -0.0596099 -0.0122043 0.120956 -0.0543564 
-0.0257685 0.130804 -0.0579178 -0.0714087 0.0594588 -0.0478189 -0.119858 0.0728426 -0.0504389 
-0.00883723 0.077276 -0.045825 -0.0948758 0.111219 -0.0484849 -0.0458204 0.0856797 -0.0376633 
-0.0110619 0.0980157 -0.0441578 -0.0127725 0.109276 -0.0389614 -0.0497977 0.137292 -0.0397813 
-0.136931 0.108845 -0.0325228 -0.108227 0.0589652 -0.0230183 -0.00986102 0.0670854 -0.0286113 
-0.00646377 0.0855482 -0.0249436 -0.007467 0.108731 -0.0279012 -0.0240868 0.123837 -0.0248296 
-0.0653723 0.184377 -0.0269201 -0.119441 0.0550815 -0.0154315 -0.0654111 0.0759804 -0.0192373 
-0.0194018 0.0839243 -0.0213847 -0.133005 0.139578 -0.0157263 -0.128509 0.0600111 -0.01271 
-0.132034 0.0751207 -0.0102571 -0.048649 0.0707825 -0.00937931 -0.0846164 0.09481 -0.0137393 
-0.0865359 0.0604681 -0.00396659 -0.0174446 0.0580735 -0.00546575 -0.00207748 0.0575683 -0.00622505 
-0.137954 0.0601737 0.000361284 -0.00923047 0.0885323 0.00228995 -0.0311273 0.0559456 0.0130022 
-0.12135 0.0729603 0.0116733 -0.144991 0.0695005 0.0166136 -0.132993 0.0667399 0.0186377 
-0.110791 0.0620244 0.0157423 -0.0228866 0.0631888 0.0183826 -0.0856771 0.082465 0.0208681 
-0.0184895 0.0775554 0.015578 -0.131045 0.0854328 0.0206089 -0.0817539 0.129301 0.0227017 
-0.115083 0.0556383 0.0233528 -0.120058 0.0801919 0.0299576 -0.107538 0.0870253 0.0250647 
-0.113957 0.135735 0.0309776 -0.100051 0.141859 0.0251343 -0.0278292 0.0781941 0.0351896 
-0.0732058 0.123591 0.0383666 -0.0902071 0.0818325 0.039781 -0.0162461 0.0785467 0.0392337 
-0.12426 0.10145 0.0438526 -0.137951 0.135726 0.0422918 -0.13792 0.177449 0.0433686 
-0.0368355 0.0599902 0.0482695 -0.139436 0.0766282 0.0459576 -0.076695 0.0699493 0.0505862 
-0.0567516 0.0714912 0.0468952 -0.041002 0.0917247 0.0446877 -0.112094 0.0720046 0.055613 
-0.0400476 0.0592535 0.0653972 -0.137268 0.0615895 0.0654453 -0.044734 0.151655 0.0669134 
-0.00648465 0.0888281 0.0690727 -0.0760101 0.157803 0.072829 -0.0836453 0.0582255 0.076575 
-0.00994133 0.0593857 0.0805786 -0.121199 0.0641378 0.0828617 -0.0341297 0.0650782 0.081946 
-0.139186 0.0735833 0.0759008 -0.126291 0.121208 0.0768377 -0.0132014 0.108634 0.0866451 
-0.125548 0.0690133 0.0923294 -0.0272051 0.0799473 0.089999 -0.112589 0.0953336 0.0948065 
-0.0485162 0.0712549 0.101907 -0.126668 0.112237 0.103047 -0.0304585 0.140225 0.0996666 
-0.0513893 0.164926 0.101597 -0.0123914 0.0843632 0.111967 -0.0662038 0.165636 0.118231 
-0.0118574 0.0550828 0.120269 -0.0953551 0.152266 0.12783 -0.106593 0.0714633 0.141727 
-0.105081 0.100296 0.137997 -0.098192 0.113794 0.139532 -0.0408126 0.196821 0.144504 
-0.0805978 0.200214 0.142635 -0.115796 0.0594252 0.142505 -0.0851381 0.20041 0.142711 
-0.0459531 0.206281 -0.144444 -0.0517981 0.20628 -0.144444 -0.0459562 0.218424 -0.144556 
-0.0518012 0.218422 -0.144555 -0.0517978 0.206337 -0.138599 -0.0459528 0.206338 -0.138599 
-0.0459559 0.218481 -0.138711 -0.0518009 0.218479 -0.13871 -0.133793 0.24855 -0.138025 
-0.120878 0.24855 -0.138025 -0.133793 0.289717 -0.138025 -0.120878 0.289717 -0.138025 
-0.12101 0.326378 -0.129982 -0.0995148 0.326402 -0.129982 -0.120605 0.395563 -0.129023 
-0.099705 0.395541 -0.129006 -0.133793 0.24855 -0.12511 -0.120878 0.24855 -0.12511 
-0.133793 0.289717 -0.12511 -0.120878 0.289717 -0.12511 -0.0900654 0.216141 -0.113098 
-0.0803431 0.216184 -0.113098 -0.0901271 0.242882 -0.113043 -0.0804048 0.242925 -0.113043 
-0.045447 0.260209 -0.110845 -0.0299379 0.260209 -0.110845 -0.045447 0.312074 -0.110845 
-0.0299379 0.312074 -0.110845 -0.12101 0.326514 -0.108487 -0.0995147 0.326537 -0.108487 
-0.120574 0.395509 -0.108081 -0.099714 0.395488 -0.108078 -0.0258013 0.206936 -0.0977611 
-0.021478 0.206937 -0.0977649 -0.0900653 0.216103 -0.103376 -0.0803431 0.216146 -0.103376 
-0.090127 0.242843 -0.103321 -0.0804048 0.242886 -0.103321 -0.0257964 0.206887 -0.0934378 
-0.0214731 0.206888 -0.0934416 -0.0746729 0.238898 -0.0926176 -0.0633543 0.238898 -0.0926115 
-0.0934994 0.257287 -0.0961636 -0.0789881 0.257287 -0.0961636 -0.045447 0.260209 -0.095336 
-0.0299379 0.260209 -0.095336 -0.074673 0.273481 -0.0926161 -0.0645086 0.272347 -0.0922647 
-0.0589485 0.2741 -0.0943788 -0.0419994 0.272966 -0.0940333 -0.0934994 0.305038 -0.0961636 
-0.0789881 0.305038 -0.0961636 -0.045447 0.312074 -0.095336 -0.0299379 0.312074 -0.095336 
-0.0601026 0.335533 -0.0940455 -0.0419994 0.335533 -0.0940455 -0.0572419 0.257025 -0.0839816 
-0.0790908 0.267323 -0.0872338 -0.0721981 0.306389 -0.0841329 -0.0410276 0.206678 -0.0804488 
-0.0347486 0.20638 -0.0800566 -0.0407479 0.220643 -0.080174 -0.034469 0.220346 -0.0797818 
-0.0906415 0.239267 -0.0785154 -0.0791234 0.239267 -0.0785154 -0.0746788 0.238897 -0.0812989 
-0.0633603 0.238897 -0.081293 -0.0934994 0.257287 -0.0816523 -0.0789881 0.257287 -0.0816523 
-0.0677406 0.26315 -0.0780063 -0.124188 0.270427 -0.0796946 -0.106683 0.270433 -0.0799084 
-0.0633604 0.27348 -0.0812916 -0.0906415 0.274673 -0.0785154 -0.0791234 0.274673 -0.0785154 
-0.0531907 0.277532 -0.0798504 -0.0419994 0.272978 -0.0759293 -0.0641996 0.301867 -0.0802509 
-0.0934994 0.305038 -0.0816523 -0.0789881 0.305038 -0.0816523 -0.124196 0.330522 -0.0797146 
-0.106691 0.330528 -0.0799284 -0.0601026 0.335538 -0.0759431 -0.0419994 0.335538 -0.0759431 
-0.0414234 0.206387 -0.0741699 -0.0351444 0.20609 -0.0737777 -0.0411437 0.220353 -0.073895 
-0.0348648 0.220055 -0.0735028 -0.0721133 0.257123 -0.069032 -0.0572029 0.257154 -0.0690711 
-0.02541 0.2743 -0.0744944 -0.00770592 0.274171 -0.0743891 -0.0721591 0.306519 -0.0692225 
-0.0572486 0.30655 -0.0692616 -0.00751784 0.335089 -0.0745283 -0.0252219 0.335217 -0.0746336 
-0.0906415 0.239267 -0.0669973 -0.0791234 0.239267 -0.0669973 -0.123974 0.270441 -0.0621901 
-0.106469 0.270447 -0.0624039 -0.00385684 0.267633 -0.0624832 -0.0906415 0.274673 -0.0669973 
-0.0791234 0.274673 -0.0669973 -0.0209693 0.326077 -0.0626012 -0.00386394 0.326082 -0.0625208 
-0.123982 0.330536 -0.0622101 -0.106477 0.330541 -0.0624238 -0.0905384 0.260714 -0.0582916 
-0.0746302 0.260714 -0.0582916 -0.0193013 0.26603 -0.0593353 -0.0623136 0.279085 -0.0588653 
-0.0436117 0.279085 -0.0588653 -0.0255153 0.274395 -0.0567903 -0.0094722 0.275866 -0.0599133 
-0.0905384 0.314232 -0.0583033 -0.0746302 0.314232 -0.0583033 -0.00762317 0.335184 -0.0568243 
-0.0253273 0.335312 -0.0569295 -0.0623136 0.344118 -0.0588653 -0.0436117 0.344118 -0.0588653 
-0.0210426 0.267654 -0.045458 -0.00393699 0.267659 -0.0453779 -0.0210496 0.326103 -0.0454956 
-0.00394406 0.326108 -0.0454154 -0.110706 0.245421 -0.0390575 -0.0979909 0.245421 -0.0390575 
-0.135237 0.260321 -0.038448 -0.119928 0.260321 -0.038448 -0.0905384 0.260729 -0.0423829 
-0.0746302 0.260729 -0.0423829 -0.0623136 0.279085 -0.0401635 -0.0436117 0.279085 -0.0401635 
-0.110706 0.285765 -0.0390575 -0.0979909 0.285765 -0.0390575 -0.135237 0.311361 -0.0384475 
-0.119928 0.311361 -0.0384475 -0.0905384 0.314234 -0.0423957 -0.0746302 0.314234 -0.0423957 
-0.0623136 0.344118 -0.0401635 -0.0436117 0.344118 -0.0401635 -0.0183451 0.226896 -0.0307164 
-0.054692 0.238858 -0.0256199 -0.0429743 0.238858 -0.0256199 -0.110706 0.245421 -0.026342 
-0.0979909 0.245421 -0.026342 -0.0176655 0.256011 -0.0299565 -0.135237 0.260318 -0.0231384 
-0.119928 0.260318 -0.0231384 -0.0249265 0.270841 -0.0263543 -0.054692 0.275087 -0.0256199 
-0.0429743 0.275087 -0.0256199 -0.110706 0.285765 -0.026342 -0.0979909 0.285765 -0.026342 
-0.135237 0.311363 -0.0231379 -0.119928 0.311363 -0.0231379 -0.0183634 0.225944 -0.0203969 
-0.0566122 0.243873 -0.0203877 -0.0438967 0.243995 -0.0203667 -0.0177264 0.254993 -0.0196373 
-0.00912532 0.270583 -0.0204156 -0.056726 0.284262 -0.0203668 -0.0440106 0.284294 -0.0203878 
-0.0263013 0.330755 -0.0218076 -0.00918303 0.330678 -0.0204436 -0.0141273 0.33314 -0.015804 
-0.054692 0.238858 -0.0139022 -0.0429743 0.238858 -0.0139022 -0.0353294 0.270927 -0.0118143 
-0.054692 0.275087 -0.0139022 -0.0429743 0.275087 -0.0139022 -0.0154527 0.272336 -0.0113727 
-0.0338849 0.328169 -0.0123397 -0.0266921 0.269303 -0.00397447 -0.00904327 0.270625 -0.00304739 
[...]
POINT_DATA 1156
FIELD FieldData 8
id 1 1156 int
3781 3801 3749 3894 3745 2648 3927 3730 3789 
3994 3744 3970 3802 2739 2901 3917 3952 3937 
3023 3359 3024 3738 2755 3931 3785 3823 3296 
3981 3852 3908 3180 3844 3586 3685 3773 3808 
2484 3831 3966 3932 3987 3975 3971 3830 3960 
3877 3943 3903 3360 3805 3716 3242 3731 3135 
3951 3243 3961 3757 3896 3809 3244 3918 3727 
2962 3939 3814 3758 2824 3873 3920 3853 3714 
3995 2749 3879 3953 3885 3938 3787 3815 3182 
3297 3786 2961 3746 3919 3779 3925 2482 3962 
2902 3688 3982 3720 3847 3906 3782 3825 3686 
3836 3803 3950 2823 3988 3940 3996 3775 3587 
3955 3909 3728 3747 3854 3911 3788 3954 3631 
3406 3760 3765 3461 3761 3768 3871 3863 2550 
3864 3910 3325 3721 3968 3941 3136 3776 2509 
3997 3754 3963 3977 3632 3729 3875 3956 3874 
4831 3689 4827 4798 4794 4800 4796 4795 4799 
4793 4797 4442 4446 4444 4448 4018 4022 4020 
4024 4443 4447 4445 4441 4690 4694 4692 4696 
4226 4230 4228 4232 4019 4023 4021 4017 4852 
4856 4691 4695 4693 4689 4853 4849 4602 4606 
4330 4334 4227 4231 4604 4608 4042 4046 4332 
4336 4229 4225 4044 4048 4286 4605 4284 4786 
4790 4788 4792 4594 4598 4603 4607 4331 4335 
4282 4084 4088 4601 4596 4600 4043 4047 4288 
4333 4329 4086 4090 4045 4041 4787 4791 4789 
4785 4283 4287 4058 4062 4285 4281 4064 4060 
4595 4599 4085 4089 4142 4597 4593 4140 4144 
4087 4091 4194 4198 4138 4026 4030 4059 4063 
4196 4200 4057 4061 4028 4032 4139 4143 4141 
4137 4475 4479 4258 4262 4195 4199 4027 4031 
4477 4481 4260 4264 4197 4193 4029 4025 4658 
4578 4582 4476 4480 4660 4259 4263 4092 4580 
4584 4478 4482 4261 4257 4659 4483 4487 4661 
4096 4485 4474 4094 4074 4095 4579 4583 4076 
4581 4577 4093 4078 4080 4075 4073 4850 4854 
4851 4855 4077 4082 4079 4083 4081 4484 4488 
4362 4366 4486 4473 4364 4368 4346 4350 4162 
4166 4348 4352 4164 4168 4674 4678 4363 4367 
4676 4680 4365 4361 4634 4638 4675 4679 4347 
4314 4351 4636 4640 4318 4677 4673 4349 4345 
4316 4320 4354 4266 4270 4163 4167 4034 4268 
4356 4272 4165 4161 4036 4040 4730 4734 4635 
4639 4732 4736 4498 4315 4637 4633 4319 4355 
4146 4150 4038 4317 4313 4148 4152 4002 4006 
4004 4008 4731 4735 4733 4729 4499 4267 4271 
4115 4154 4119 4158 4500 4035 4269 4039 4357 
4265 4156 4160 4117 4121 4068 4072 4770 4774 
4772 4776 4210 4214 4147 4151 4066 4070 4212 
4216 4149 4145 4037 4033 4005 4001 4771 4775 
4773 4769 4530 4534 4387 4391 4234 4238 4159 
4116 4120 4127 4067 4123 4071 4536 4389 4501 
4393 4236 4240 4118 4122 4125 4114 4069 4065 
4003 4007 4211 4215 4155 4124 4532 4128 4213 
4209 4157 4153 4450 4454 4586 4590 4531 4535 
4418 4422 4388 4392 4235 4290 4239 4294 4588 
4178 4182 4452 4456 4592 4533 4529 4420 4424 
4394 4237 4292 4233 4296 4180 4184 4126 4113 
4451 4455 4587 4591 4419 4423 4453 4449 4589 
4585 4390 4421 4417 4555 4559 4395 4399 4338 
4342 4291 4295 4179 4183 4557 4561 4397 4386 
4340 4344 4293 4289 4181 4177 4611 4615 4506 
4510 4556 4560 4343 4396 4613 4558 4562 4508 
4512 4738 4722 4726 4742 4740 4744 4724 4728 
4617 4339 4400 4398 4385 4341 4337 4619 4623 
4739 4621 4723 4727 4743 4741 4737 4612 4616 
4507 4511 4725 4721 4610 4614 4618 4050 4509 
4505 4052 4620 4828 4832 4810 4814 4624 4812 
4816 4563 4567 4609 4565 4554 4829 4825 4811 
4815 4813 4809 4622 4564 4568 4566 4553 4051 
4053 4055 4826 4830 3899 3849 3161 3811 3440 
3905 3818 3876 3972 3838 3934 3945 3762 3860 
3784 3900 3726 3405 3755 3985 3858 3957 3025 
3741 3717 3964 3978 2591 3778 2927 2989 3922 
3856 2481 3796 3867 3711 2867 3888 3441 3806 
3869 3737 3723 3819 2483 3712 3766 3850 3881 
3797 3665 3324 3812 3208 3162 3614 3691 3891 
2748 3851 3770 3889 3840 2751 3262 3771 3914 
3890 3991 3777 3946 2750 4863 4862 4859 4858 
2690 3791 3442 3732 3870 3774 3385 3764 3263 
3999 3668 3915 3799 3742 3820 3718 3763 3828 
3913 3692 2790 3901 3923 2963 3993 3916 3979 
3974 3998 3613 3667 3924 3750 3810 2928 3739 
3790 3947 3719 3772 3835 3715 3892 3751 3857 
3846 3298 3861 3443 3935 3833 3733 3958 3926 
3983 3800 3798 2753 3872 3843 3936 3326 2868 
3725 3967 3792 3902 3883 3930 3444 3693 4842 
4843 4846 4847 3848 3969 3980 4714 4718 4716 
4720 4715 4719 4717 4713 4626 4630 4515 4519 
4628 4632 4517 4521 4833 4840 4836 4837 4834 
4835 4839 4838 4627 4631 4629 4625 4516 4520 
4402 4406 4518 4522 4404 4408 4523 4527 4403 
4407 4525 4514 4405 4401 4698 4702 4700 4704 
4699 4703 4701 4697 4524 4528 4526 4513 4754 
4758 4760 4756 4426 4430 4428 4432 4759 4755 
4753 4757 4427 4431 4429 4425 4490 4494 4370 
4374 4298 4302 4492 4496 4372 4376 4300 4304 
4762 4766 4764 4768 4682 4546 4550 4491 4458 
4462 4495 4684 4688 4371 4375 4202 4206 4299 
4303 4548 4552 4493 4460 4464 4489 4373 4369 
4204 4208 4301 4297 4763 4767 4765 4761 4686 
4864 4666 4670 4683 4687 4547 4551 4459 4463 
4685 4681 4668 4672 4203 4207 4549 4545 4461 
4457 4205 4201 4857 4861 4860 4662 4664 4663 
4667 4671 4642 4646 4657 4669 4665 4644 4648 
4643 4647 4645 4641 4802 4807 4806 4803 4801 
4808 4804 4805 4650 4654 4652 4656 4655 4649 
4651 4653 4306 4310 4308 4312 4014 4010 4012 
4016 4746 4750 4748 4752 4747 4751 4749 4745 
4706 4710 4378 4382 4358 4708 4712 4540 4307 
4311 4380 4384 4360 4309 4305 4538 4542 4502 
4544 4186 4190 4188 4192 4015 4011 4013 4009 
4707 4711 4379 4383 4503 4709 4705 4359 4322 
4326 4243 4247 4103 4504 4381 4377 4353 4324 
4328 4185 4245 4249 4101 4105 4539 4543 4541 
4537 4187 4191 4099 4321 4189 4323 4327 4244 
4248 4100 4104 4497 4325 4246 4250 4102 4106 
4410 4414 4412 4416 4434 4438 4411 4415 4436 
4440 4413 4409 4435 4439 4255 4130 4134 4437 
4433 4253 4242 4132 4136 4824 4820 4822 4818 
4782 4778 4784 4218 4222 4251 4170 4174 4220 
4224 4172 4176 4817 4821 4823 4819 4779 4783 
4781 4777 4780 4252 4256 4131 4135 4254 4241 
4133 4129 4466 4470 4570 4574 4219 4223 4107 
4111 4054 4572 4576 4468 4472 4276 4221 4217 
4109 4098 4056 4844 4845 4841 4848 4467 4471 
4274 4278 4171 4175 4469 4465 4280 4173 4169 
4275 4279 4571 4575 4108 4112 4573 4569 4277 
4049 4273 4110 4097 
type 1 1156 int
2 2 2 2 2 2 2 2 2 
2 2 2 2 2 2 2 2 2 
2 2 2 2 2 2 2 2 2 
2 2 2 2 2 2 2 2 2 
2 2 2 2 2 2 2 2 2 
2 2 2 2 2 2 2 2 2 
2 2 2 2 2 2 2 2 2 
2 2 2 2 2 2 2 2 2 
2 2 2 2 2 2 2 2 2 
2 2 2 2 2 2 2 2 2 
2 2 2 2 2 2 2 2 2 
2 2 2 2 2 2 2 2 2 
2 2 2 2 2 2 2 2 2 
2 2 2 2 2 2 2 2 2 
2 2 2 2 2 2 2 2 2 
2 2 2 2 2 2 2 2 2 
2 2 2 2 2 2 2 2 2 
2 2 2 2 2 2 2 2 2 
2 2 2 2 2 2 2 2 2 
2 2 2 2 2 2 2 2 2 
2 2 2 2 2 2 2 2 2 
2 2 2 2 2 2 2 2 2 
2 2 2 2 2 2 2 2 2 
2 2 2 2 2 2 2 2 2 
2 2 2 2 2 2 2 2 2 
2 2 2 2 2 2 2 2 2 
2 2 2 2 2 2 2 2 2 
2 2 2 2 2 2 2 2 2 
2 2 2 2 2 2 2 2 2 
2 2 2 2 2 2 2 2 2 
2 2 2 2 2 2 2 2 2 
2 2 2 2 2 2 2 2 2 
2 2 2 2 2 2 2 2 2 
2 2 2 2 2 2 2 2 2 
2 2 2 2 2 2 2 2 2 
2 2 2 2 2 2 2 2 2 
2 2 2 2 2 2 2 2 2 
2 2 2 2 2 2 2 2 2 
2 2 2 2 2 2 2 2 2 
2 2 2 2 2 2 2 2 2 
2 2 2 2 2 2 2 2 2 
2 2 2 2 2 2 2 2 2 
2 2 2 2 2 2 2 2 2 
2 2 2 2 2 2 2 2 2 
2 2 2 2 2 2 2 2 2 
2 2 2 2 2 2 2 2 2 
2 2 2 2 2 2 2 2 2 
2 2 2 2 2 2 2 2 2 
2 2 2 2 2 2 2 2 2 
2 2 2 2 2 2 2 2 2 
2 2 2 2 2 2 2 2 2 
2 2 2 2 2 2 2 2 2 
2 2 2 2 2 2 2 2 2 
2 2 2 2 2 2 2 2 2 
2 2 2 2 2 2 2 2 2 
2 2 2 2 2 2 2 2 2 
2 2 2 2 2 2 2 2 2 
2 2 2 2 2 2 2 2 2 
2 2 2 2 2 2 2 2 2 
2 2 2 2 2 2 2 2 2 
2 2 2 2 2 2 2 2 2 
2 2 2 2 2 2 2 2 2 
2 2 2 2 2 2 2 2 2 
2 2 2 2 2 2 2 2 2 
2 2 2 2 2 2 2 2 2 
2 2 2 2 2 2 2 2 2 
2 2 2 2 2 2 2 2 2 
2 2 2 2 2 2 2 2 2 
2 2 2 2 2 2 2 2 2 
2 2 2 2 2 2 2 2 2 
2 2 2 2 2 2 2 2 2 
2 2 2 2 2 2 2 2 2 
2 2 2 2 2 2 2 2 2 
2 2 2 2 2 2 2 2 2 
2 2 2 2 2 2 2 2 2 
2 2 2 2 2 2 2 2 2 
2 2 2 2 2 2 2 2 2 
2 2 2 2 2 2 2 2 2 
2 2 2 2 2 2 2 2 2 
2 2 2 2 2 2 2 2 2 
2 2 2 2 2 2 2 2 2 
2 2 2 2 2 2 2 2 2 
2 2 2 2 2 2 2 2 2 
2 2 2 2 2 2 2 2 2 
2 2 2 2 2 2 2 2 2 
2 2 2 2 2 2 2 2 2 
2 2 2 2 2 2 2 2 2 
2 2 2 2 2 2 2 2 2 
2 2 2 2 2 2 2 2 2 
2 2 2 2 2 2 2 2 2 
2 2 2 2 2 2 2 2 2 
2 2 2 2 2 2 2 2 2 
2 2 2 2 2 2 2 2 2 
2 2 2 2 2 2 2 2 2 
2 2 2 2 2 2 2 2 2 
2 2 2 2 2 2 2 2 2 
2 2 2 2 2 2 2 2 2 
2 2 2 2 2 2 2 2 2 
2 2 2 2 2 2 2 2 2 
2 2 2 2 2 2 2 2 2 
2 2 2 2 2 2 2 2 2 
2 2 2 2 2 2 2 2 2 
2 2 2 2 2 2 2 2 2 
2 2 2 2 2 2 2 2 2 
2 2 2 2 2 2 2 2 2 
2 2 2 2 2 2 2 2 2 
2 2 2 2 2 2 2 2 2 
2 2 2 2 2 2 2 2 2 
2 2 2 2 2 2 2 2 2 
2 2 2 2 2 2 2 2 2 
2 2 2 2 2 2 2 2 2 
2 2 2 2 2 2 2 2 2 
2 2 2 2 2 2 2 2 2 
2 2 2 2 2 2 2 2 2 
2 2 2 2 2 2 2 2 2 
2 2 2 2 2 2 2 2 2 
2 2 2 2 2 2 2 2 2 
2 2 2 2 2 2 2 2 2 
2 2 2 2 2 2 2 2 2 
2 2 2 2 2 2 2 2 2 
2 2 2 2 2 2 2 2 2 
2 2 2 2 2 2 2 2 2 
2 2 2 2 2 2 2 2 2 
2 2 2 2 2 2 2 2 2 
2 2 2 2 2 2 2 2 2 
2 2 2 2 2 2 2 2 2 
2 2 2 2 2 2 2 2 2 
2 2 2 2 2 2 2 2 2 
2 2 2 2 
i 3 1156 int
0 0 0 0 0 0 0 0 0 
0 0 0 0 0 0 0 0 0 
0 0 0 0 0 0 0 0 0 
0 0 0 0 0 0 0 0 0 
0 0 0 0 0 0 0 0 0 
0 0 0 0 0 0 0 0 0 
0 0 0 0 0 0 0 0 0 
0 0 0 0 0 0 0 0 0 
0 0 0 0 0 0 0 0 0 
0 0 0 0 0 0 0 0 0 
0 0 0 0 0 0 0 0 0 
0 0 0 0 0 0 0 0 0 
0 0 0 0 0 0 0 0 0 
0 0 0 0 0 0 0 0 0 
0 0 0 0 0 0 0 0 0 
0 0 0 0 0 0 0 0 0 
0 0 0 0 0 0 0 0 0 
0 0 0 0 0 0 0 0 0 
0 0 0 0 0 0 0 0 0 
0 0 0 0 0 0 0 0 0 
0 0 0 0 0 0 0 0 0 
0 0 0 0 0 0 0 0 0 
0 0 0 0 0 0 0 0 0 
0 0 0 0 0 0 0 0 0 
0 0 0 0 0 0 0 0 0 
0 0 0 0 0 0 0 0 0 
0 0 0 0 0 0 0 0 0 
0 0 0 0 0 0 0 0 0 
0 0 0 0 0 0 0 0 0 
0 0 0 0 0 0 0 0 0 
0 0 0 0 0 0 0 0 0 
0 0 0 0 0 0 0 0 0 
0 0 0 0 0 0 0 0 0 
0 0 0 0 0 0 0 0 0 
0 0 0 0 0 0 0 0 0 
0 0 0 0 0 0 0 0 0 
0 0 0 0 0 0 0 0 0 
0 0 0 0 0 0 0 0 0 
0 0 0 0 0 0 0 0 0 
0 0 0 0 0 0 0 0 0 
0 0 0 0 0 0 0 0 0 
0 0 0 0 0 0 0 0 0 
0 0 0 0 0 0 0 0 0 
0 0 0 0 0 0 0 0 0 
0 0 0 0 0 0 0 0 0 
0 0 0 0 0 0 0 0 0 
0 0 0 0 0 0 0 0 0 
0 0 0 0 0 0 0 0 0 
0 0 0 0 0 0 0 0 0 
0 0 0 0 0 0 0 0 0 
0 0 0 0 0 0 0 0 0 
0 0 0 0 0 0 0 0 0 
0 0 0 0 0 0 0 0 0 
0 0 0 0 0 0 0 0 0 
0 0 0 0 0 0 0 0 0 
0 0 0 0 0 0 0 0 0 
0 0 0 0 0 0 0 0 0 
0 0 0 0 0 0 0 0 0 
0 0 0 0 0 0 0 0 0 
0 0 0 0 0 0 0 0 0 
0 0 0 0 0 0 0 0 0 
0 0 0 0 0 0 0 0 0 
0 0 0 0 0 0 0 0 0 
0 0 0 0 0 0 0 0 0 
0 0 0 0 0 0 0 0 0 
0 0 0 0 0 0 0 0 0 
0 0 0 0 0 0 0 0 0 
0 0 0 0 0 0 0 0 0 
0 0 0 0 0 0 0 0 0 
0 0 0 0 0 0 0 0 0 
0 0 0 0 0 0 0 0 0 
0 0 0 0 0 0 0 0 0 
0 0 0 0 0 0 0 0 0 
0 0 0 0 0 0 0 0 0 
0 0 0 0 0 0 0 0 0 
0 0 0 0 0 0 0 0 0 
0 0 0 0 0 0 0 0 0 
0 0 0 0 0 0 0 0 0 
0 0 0 0 0 0 0 0 0 
0 0 0 0 0 0 0 0 0 
0 0 0 0 0 0 0 0 0 
0 0 0 0 0 0 0 0 0 
0 0 0 0 0 0 0 0 0 
0 0 0 0 0 0 0 0 0 
0 0 0 0 0 0 0 0 0 
0 0 0 0 0 0 0 0 0 
0 0 0 0 0 0 0 0 0 
0 0 0 0 0 0 0 0 0 
0 0 0 0 0 0 0 0 0 
0 0 0 0 0 0 0 0 0 
0 0 0 0 0 0 0 0 0 
0 0 0 0 0 0 0 0 0 
0 0 0 0 0 0 0 0 0 
0 0 0 0 0 0 0 0 0 
0 0 0 0 0 0 0 0 0 
0 0 0 0 0 0 0 0 0 
0 0 0 0 0 0 0 0 0 
0 0 0 0 0 0 0 0 0 
0 0 0 0 0 0 0 0 0 
0 0 0 0 0 0 0 0 0 
0 0 0 0 0 0 0 0 0 
0 0 0 0 0 0 0 0 0 
0 0 0 0 0 0 0 0 0 
0 0 0 0 0 0 0 0 0 
0 0 0 0 0 0 0 0 0 
0 0 0 0 0 0 0 0 0 
0 0 0 0 0 0 0 0 0 
0 0 0 0 0 0 0 0 0 
0 0 0 0 0 0 0 0 0 
0 0 0 0 0 0 0 0 0 
0 0 0 0 0 0 0 0 0 
0 0 0 0 0 0 0 0 0 
0 0 0 0 0 0 0 0 0 
0 0 0 0 0 0 0 0 0 
0 0 0 0 0 0 0 0 0 
0 0 0 0 0 0 0 0 0 
0 0 0 0 0 0 0 0 0 
0 0 0 0 0 0 0 0 0 
0 0 0 0 0 0 0 0 0 
0 0 0 0 0 0 0 0 0 
0 0 0 0 0 0 0 0 0 
0 0 0 0 0 0 0 0 0 
0 0 0 0 0 0 0 0 0 
0 0 0 0 0 0 0 0 0 
0 0 0 0 0 0 0 0 0 
0 0 0 0 0 0 0 0 0 
0 0 0 0 0 0 0 0 0 
0 0 0 0 0 0 0 0 0 
0 0 0 0 0 0 0 0 0 
0 0 0 0 0 0 0 0 0 
0 0 0 0 0 0 0 0 0 
0 0 0 0 0 0 0 0 0 
0 0 0 0 0 0 0 0 0 
0 0 0 0 0 0 0 0 0 
0 0 0 0 0 0 0 0 0 
0 0 0 0 0 0 0 0 0 
0 0 0 0 0 0 0 0 0 
0 0 0 0 0 0 0 0 0 
0 0 0 0 0 0 0 0 0 
0 0 0 0 0 0 0 0 0 
0 0 0 0 0 0 0 0 0 
0 0 0 0 0 0 0 0 0 
0 0 0 0 0 0 0 0 0 
0 0 0 0 0 0 0 0 0 
0 0 0 0 0 0 0 0 0 
0 0 0 0 0 0 0 0 0 
0 0 0 0 0 0 0 0 0 
0 0 0 0 0 0 0 0 0 
0 0 0 0 0 0 0 0 0 
0 0 0 0 0 0 0 0 0 
0 0 0 0 0 0 0 0 0 
0 0 0 0 0 0 0 0 0 
0 0 0 0 0 0 0 0 0 
0 0 0 0 0 0 0 0 0 
0 0 0 0 0 0 0 0 0 
0 0 0 0 0 0 0 0 0 
0 0 0 0 0 0 0 0 0 
0 0 0 0 0 0 0 0 0 
0 0 0 0 0 0 0 0 0 
0 0 0 0 0 0 0 0 0 
0 0 0 0 0 0 0 0 0 
0 0 0 0 0 0 0 0 0 
0 0 0 0 0 0 0 0 0 
0 0 0 0 0 0 0 0 0 
0 0 0 0 0 0 0 0 0 
0 0 0 0 0 0 0 0 0 
0 0 0 0 0 0 0 0 0 
0 0 0 0 0 0 0 0 0 
0 0 0 0 0 0 0 0 0 
0 0 0 0 0 0 0 0 0 
0 0 0 0 0 0 0 0 0 
0 0 0 0 0 0 0 0 0 
0 0 0 0 0 0 0 0 0 
0 0 0 0 0 0 0 0 0 
0 0 0 0 0 0 0 0 0 
0 0 0 0 0 0 0 0 0 
0 0 0 0 0 0 0 0 0 
0 0 0 0 0 0 0 0 0 
0 0 0 0 0 0 0 0 0 
0 0 0 0 0 0 0 0 0 
0 0 0 0 0 0 0 0 0 
0 0 0 0 0 0 0 0 0 
0 0 0 0 0 0 0 0 0 
0 0 0 0 0 0 0 0 0 
0 0 0 0 0 0 0 0 0 
0 0 0 0 0 0 0 0 0 
0 0 0 0 0 0 0 0 0 
0 0 0 0 0 0 0 0 0 
0 0 0 0 0 0 0 0 0 
0 0 0 0 0 0 0 0 0 
0 0 0 0 0 0 0 0 0 
0 0 0 0 0 0 0 0 0 
0 0 0 0 0 0 0 0 0 
0 0 0 0 0 0 0 0 0 
0 0 0 0 0 0 0 0 0 
0 0 0 0 0 0 0 0 0 
0 0 0 0 0 0 0 0 0 
0 0 0 0 0 0 0 0 0 
0 0 0 0 0 0 0 0 0 
0 0 0 0 0 0 0 0 0 
0 0 0 0 0 0 0 0 0 
0 0 0 0 0 0 0 0 0 
0 0 0 0 0 0 0 0 0 
0 0 0 0 0 0 0 0 0 
0 0 0 0 0 0 0 0 0 
0 0 0 0 0 0 0 0 0 
0 0 0 0 0 0 0 0 0 
0 0 0 0 0 0 0 0 0 
0 0 0 0 0 0 0 0 0 
0 0 0 0 0 0 0 0 0 
0 0 0 0 0 0 0 0 0 
0 0 0 0 0 0 0 0 0 
0 0 0 0 0 0 0 0 0 
0 0 0 0 0 0 0 0 0 
0 0 0 0 0 0 0 0 0 
0 0 0 0 0 0 0 0 0 
0 0 0 0 0 0 0 0 0 
0 0 0 0 0 0 0 0 0 
0 0 0 0 0 0 0 0 0 
0 0 0 0 0 0 0 0 0 
0 0 0 0 0 0 0 0 0 
0 0 0 0 0 0 0 0 0 
0 0 0 0 0 0 0 0 0 
0 0 0 0 0 0 0 0 0 
0 0 0 0 0 0 0 0 0 
0 0 0 0 0 0 0 0 0 
0 0 0 0 0 0 0 0 0 
0 0 0 0 0 0 0 0 0 
0 0 0 0 0 0 0 0 0 
0 0 0 0 0 0 0 0 0 
0 0 0 0 0 0 0 0 0 
0 0 0 0 0 0 0 0 0 
0 0 0 0 0 0 0 0 0 
0 0 0 0 0 0 0 0 0 
0 0 0 0 0 0 0 0 0 
0 0 0 0 0 0 0 0 0 
0 0 0 0 0 0 0 0 0 
0 0 0 0 0 0 0 0 0 
0 0 0 0 0 0 0 0 0 
0 0 0 0 0 0 0 0 0 
0 0 0 0 0 0 0 0 0 
0 0 0 0 0 0 0 0 0 
0 0 0 0 0 0 0 0 0 
0 0 0 0 0 0 0 0 0 
0 0 0 0 0 0 0 0 0 
0 0 0 0 0 0 0 0 0 
0 0 0 0 0 0 0 0 0 
0 0 0 0 0 0 0 0 0 
0 0 0 0 0 0 0 0 0 
0 0 0 0 0 0 0 0 0 
0 0 0 0 0 0 0 0 0 
0 0 0 0 0 0 0 0 0 
0 0 0 0 0 0 0 0 0 
0 0 0 0 0 0 0 0 0 
0 0 0 0 0 0 0 0 0 
0 0 0 0 0 0 0 0 0 
0 0 0 0 0 0 0 0 0 
0 0 0 0 0 0 0 0 0 
0 0 0 0 0 0 0 0 0 
0 0 0 0 0 0 0 0 0 
0 0 0 0 0 0 0 0 0 
0 0 0 0 0 0 0 0 0 
0 0 0 0 0 0 0 0 0 
0 0 0 0 0 0 0 0 0 
0 0 0 0 0 0 0 0 0 
0 0 0 0 0 0 0 0 0 
0 0 0 0 0 0 0 0 0 
0 0 0 0 0 0 0 0 0 
0 0 0 0 0 0 0 0 0 
0 0 0 0 0 0 0 0 0 
0 0 0 0 0 0 0 0 0 
0 0 0 0 0 0 0 0 0 
0 0 0 0 0 0 0 0 0 
0 0 0 0 0 0 0 0 0 
0 0 0 0 0 0 0 0 0 
0 0 0 0 0 0 0 0 0 
0 0 0 0 0 0 0 0 0 
0 0 0 0 0 0 0 0 0 
0 0 0 0 0 0 0 0 0 
0 0 0 0 0 0 0 0 0 
0 0 0 0 0 0 0 0 0 
0 0 0 0 0 0 0 0 0 
0 0 0 0 0 0 0 0 0 
0 0 0 0 0 0 0 0 0 
0 0 0 0 0 0 0 0 0 
0 0 0 0 0 0 0 0 0 
0 0 0 0 0 0 0 0 0 
0 0 0 0 0 0 0 0 0 
0 0 0 0 0 0 0 0 0 
0 0 0 0 0 0 0 0 0 
0 0 0 0 0 0 0 0 0 
0 0 0 0 0 0 0 0 0 
0 0 0 0 0 0 0 0 0 
0 0 0 0 0 0 0 0 0 
0 0 0 0 0 0 0 0 0 
0 0 0 0 0 0 0 0 0 
0 0 0 0 0 0 0 0 0 
0 0 0 0 0 0 0 0 0 
0 0 0 0 0 0 0 0 0 
0 0 0 0 0 0 0 0 0 
0 0 0 0 0 0 0 0 0 
0 0 0 0 0 0 0 0 0 
0 0 0 0 0 0 0 0 0 
0 0 0 0 0 0 0 0 0 
0 0 0 0 0 0 0 0 0 
0 0 0 0 0 0 0 0 0 
0 0 0 0 0 0 0 0 0 
0 0 0 0 0 0 0 0 0 
0 0 0 0 0 0 0 0 0 
0 0 0 0 0 0 0 0 0 
0 0 0 0 0 0 0 0 0 
0 0 0 0 0 0 0 0 0 
0 0 0 0 0 0 0 0 0 
0 0 0 0 0 0 0 0 0 
0 0 0 0 0 0 0 0 0 
0 0 0 0 0 0 0 0 0 
0 0 0 0 0 0 0 0 0 
0 0 0 0 0 0 0 0 0 
0 0 0 0 0 0 0 0 0 
0 0 0 0 0 0 0 0 0 
0 0 0 0 0 0 0 0 0 
0 0 0 0 0 0 0 0 0 
0 0 0 0 0 0 0 0 0 
0 0 0 0 0 0 0 0 0 
0 0 0 0 0 0 0 0 0 
0 0 0 0 0 0 0 0 0 
0 0 0 0 0 0 0 0 0 
0 0 0 0 0 0 0 0 0 
0 0 0 0 0 0 0 0 0 
0 0 0 0 0 0 0 0 0 
0 0 0 0 0 0 0 0 0 
0 0 0 0 0 0 0 0 0 
0 0 0 0 0 0 0 0 0 
0 0 0 0 0 0 0 0 0 
0 0 0 0 0 0 0 0 0 
0 0 0 0 0 0 0 0 0 
0 0 0 0 0 0 0 0 0 
0 0 0 0 0 0 0 0 0 
0 0 0 0 0 0 0 0 0 
0 0 0 0 0 0 0 0 0 
0 0 0 0 0 0 0 0 0 
0 0 0 0 0 0 0 0 0 
0 0 0 0 0 0 0 0 0 
0 0 0 0 0 0 0 0 0 
0 0 0 0 0 0 0 0 0 
0 0 0 0 0 0 0 0 0 
0 0 0 0 0 0 0 0 0 
0 0 0 0 0 0 0 0 0 
0 0 0 0 0 0 0 0 0 
0 0 0 0 0 0 0 0 0 
0 0 0 0 0 0 0 0 0 
0 0 0 0 0 0 0 0 0 
0 0 0 0 0 0 0 0 0 
0 0 0 0 0 0 0 0 0 
0 0 0 0 0 0 0 0 0 
0 0 0 0 0 0 0 0 0 
0 0 0 0 0 0 0 0 0 
0 0 0 0 0 0 0 0 0 
0 0 0 0 0 0 0 0 0 
0 0 0 0 0 0 0 0 0 
0 0 0 0 0 0 0 0 0 
0 0 0 0 0 0 0 0 0 
0 0 0 0 0 0 0 0 0 
0 0 0 0 0 0 0 0 0 
0 0 0 0 0 0 0 0 0 
0 0 0 0 0 0 0 0 0 
0 0 0 0 0 0 0 0 0 
0 0 0 0 0 0 0 0 0 
0 0 0 0 0 0 0 0 0 
0 0 0 0 0 0 0 0 0 
0 0 0 0 0 0 0 0 0 
0 0 0 0 0 0 0 0 0 
0 0 0 0 0 0 0 0 0 
0 0 0 0 0 0 0 0 0 
0 0 0 0 0 0 0 0 0 
0 0 0 0 0 0 0 0 0 
0 0 0 0 0 0 0 0 0 
0 0 0 0 0 0 0 0 0 
0 0 0 0 0 0 0 0 0 
0 0 0 0 0 0 0 0 0 
0 0 0 0 0 0 0 0 0 
0 0 0 0 0 0 0 0 0 
0 0 0 0 0 0 0 0 0 
0 0 0 0 0 0 0 0 0 
0 0 0 0 0 0 0 0 0 
0 0 0 
v 3 1156 double
0.0080156891962 -0.0015029605931 0.004447886628 0.010048934566 -0.00070430313784 0.0034683114765 -0.19048707261 0.037453699347 -0.044591951551 
0.0046274359853 0.008066801115 -0.0032981339191 -0.0056303209371 0.0085283445581 0.016039859049 -0.027173646627 0.011902077028 0.021408443641 
-0.01040054753 0.0058004044742 0.04555054737 -0.029080006669 0.04353332093 0.035337047209 -0.084222972431 0.081829535961 -0.0015657430505 
-0.015970077835 0.15166809512 0.0078683031147 0.0084999301845 0.1323890659 0.0081926522313 -0.13317801248 0.16221021249 0.0070055395523 
-0.040956546694 0.26237529859 -0.077021290032 0.0086390268809 0.038845535794 -0.0015567670795 0.019798951085 0.040401127349 0.0076420378047 
-0.078830096885 0.05744859893 0.00019912973901 -0.073359751146 0.048740936439 0.033533506534 0.00042695319134 0.13846042764 0.029105660503 
0.053674959712 -0.047300543856 -0.035729475274 -0.097613623005 0.14261836488 -0.069878233524 0.012445841211 0.010247161759 0.022377678425 
-0.10342493795 -0.12228737551 -0.081399277375 -0.0030698152518 -0.047452105946 -0.019269619845 -0.055110835015 0.016838623604 0.044337729087 
-0.1521734376 0.090918890569 -0.019684191276 0.029483446629 0.02126726561 0.019328405917 0.012718550083 0.067616469755 0.01425317236 
0.096087284017 0.12261288527 -0.004294039915 -0.024108631974 0.052866387327 -0.0092589620461 -0.067244853967 0.04522047833 -0.011281584556 
-0.005644904192 0.11634111591 0.004857108426 -0.023837693753 0.013424326694 0.030482934101 -0.12700203971 0.048571700113 0.064957662293 
0.017418324533 0.057616216922 -0.030352324845 -0.046543241901 0.073906791384 0.057776194531 -0.013011560337 0.21057775716 -0.067361238852 
-0.14265671729 0.14287988695 -0.12975060637 0.014928890544 0.04441030584 -0.041816267398 -0.1632132347 0.016458060305 -0.098071338305 
-0.0032792434209 0.15987574977 -0.11366743156 -0.031250205073 0.21919385107 0.082559184695 0.027032685635 0.021794619309 -0.024559164227 
-0.075355759169 0.021676425543 0.0073510566327 -0.02568388976 0.17898130461 0.043235618101 0.039880780314 0.026113743392 0.024039611571 
-0.084078667498 0.04976864582 -0.029746205785 0.010421709988 0.032597662155 0.089304931032 0.035121297983 0.12847363527 0.096812815135 
-0.1093329276 0.013073293453 -0.054392005946 -0.060142010577 -0.019583477627 0.016349618198 0.047803103404 -0.019324961862 -0.018901646946 
8.7304082862e-05 0.05658216547 0.0490846904 -0.10514529648 0.01736526256 0.032910920883 0.048145546629 0.065638895238 -0.073652038648 
0.023475480505 0.23269993324 -0.13228825416 0.070840408429 0.24857152678 -0.025740045988 0.095677381331 0.0044200649861 -0.086041273012 
0.17906924697 0.04465336239 0.12954131523 0.042602169189 0.089323789222 -0.065956124659 0.088817694295 0.1124998154 -0.053149249242 
-0.011140416409 0.097767829241 -0.12921837017 0.015727314557 0.021455075493 -0.0024677751594 -0.023683525094 0.038479039595 0.077669425022 
-0.0039167831326 0.051254836739 -0.001557137884 -0.016476201133 0.099454444818 -0.084306564822 0.12805066387 0.097112908791 0.070525714734 
0.21273066105 0.083784470045 0.0040210919325 0.092836600924 0.11632370629 -0.033720182364 -0.041178332009 0.14957725344 0.14796284926 
0.028538407798 0.025056636625 -0.064268107381 0.032153006952 0.017443458787 0.013840565836 -0.12138748745 0.023556564993 -0.062933400745 
0.11675560386 0.0055103898253 0.016518092401 0.065426130544 0.13385490915 0.035482408426 -0.033229108723 0.13146619811 -0.072439225811 
-0.15104217532 0.21350433729 -0.08847513098 -0.037631192519 -0.036205899104 -0.0086861403241 0.031590655792 0.043572963739 -0.02529784089 
0.066069911894 0.030486271706 0.011613924384 0.0094198569489 0.15103026516 -0.022541178981 -0.044097505797 -0.017331996616 -0.013690871854 
0.0027558020571 0.066480200587 0.020948937278 0.068650783752 0.018026213225 0.060475464125 0.0720265258 0.092481050782 0.10567728676 
-0.02456028625 0.011359228832 -0.0113720337 0.13889610943 -0.022972110717 0.059703086428 -0.13181561628 -0.0047000635499 0.0047267375554 
-0.0027343479842 0.020591615742 0.016982238916 -0.019593090008 0.057115403233 0.099738465183 0.0096478304792 -0.017145350774 -0.037507409938 