# vtk DataFile Version 5.1
Generated by LIGGGHTS
ASCII
DATASET POLYDATA
POINTS 540 float
-0.138526 0.0563414 -0.144812 -0.142177 0.0696506 -0.144134 -0.0991097 0.087548 -0.143524 
-0.111775 0.0996209 -0.143652 -0.0739859 0.0978996 -0.143383 -0.0498223 0.142625 -0.143543 
-0.117764 0.056702 -0.140704 -0.0724038 0.057573 -0.139934 -0.0232013 0.0936627 -0.136345 
-0.144522 0.0589484 -0.134985 -0.114518 0.0606041 -0.128617 -0.134388 0.0635885 -0.132962 
-0.04548 0.0659023 -0.129792 -0.00527417 0.0636462 -0.131411 -0.0466325 0.0763212 -0.132674 
-0.0704902 0.0784684 -0.132346 -0.0150734 0.122051 -0.133278 -0.127336 0.174834 -0.131567 
-0.128329 0.0610826 -0.123961 -0.0796895 0.0568606 -0.122846 -0.0374594 0.0737122 -0.120339 
-0.136062 0.0794527 -0.126422 -0.0683443 0.139122 -0.121192 -0.141618 0.0562472 -0.118387 
-0.118849 0.0616081 -0.116048 -0.119262 0.0795247 -0.118565 -0.0952896 0.0826836 -0.117405 
-0.0112249 0.0861045 -0.116342 -0.108643 0.113306 -0.114805 -0.0234838 0.141184 -0.117091 
-0.0202719 0.0577175 -0.107954 -0.03078 0.0669124 -0.109233 -0.0812819 0.0991418 -0.11146 
-0.00194666 0.095316 -0.109866 -0.106209 0.102855 -0.110244 -0.0830138 0.167402 -0.110063 
-0.0648593 0.0678609 -0.0982161 -0.00747793 0.0704922 -0.0976527 -0.104926 0.0835813 -0.101078 
-0.048435 0.0936517 -0.10159 -0.0376925 0.19438 -0.103091 -0.0638716 0.106001 -0.0969311 
-0.0690362 0.0664863 -0.0852764 -0.0552266 0.0681213 -0.090178 -0.0545948 0.0814013 -0.0832313 
-0.0689933 0.163572 -0.0869778 -0.0862438 0.186871 -0.0889079 -0.136119 0.0755307 -0.0762388 
-0.042683 0.084591 -0.0817478 -0.0403267 0.102889 -0.0738128 -0.0338211 0.056447 -0.0680566 
-0.114411 0.0639924 -0.0683029 -0.0254602 0.0680917 -0.068451 -0.00528961 0.0632131 -0.0721021 
-0.0742407 0.0837964 -0.0694482 -0.0848825 0.165256 -0.0727564 -0.0636639 0.189667 -0.0722231 
-0.100324 0.0581942 -0.0624861 -0.0654326 0.0767007 -0.0642868 -0.115823 0.131075 -0.0609328 
-0.0752731 0.0633637 -0.0538984 -0.0750382 0.0560149 -0.0471917 -0.00793637 0.0654874 -0.0454668 
-0.05999 0.0787453 -0.0450827 -0.0825843 0.196916 -0.0492561 -0.0465779 0.0555114 -0.0394013 
-0.116656 0.0753393 -0.042087 -0.101182 0.0735394 -0.038045 -0.008872 0.0816326 -0.038327 
-0.139412 0.0858247 -0.0408604 -0.0326324 0.0950811 -0.0421321 -0.0186341 0.116911 -0.0394243 
-0.114255 0.0559639 -0.0351441 -0.0417122 0.085003 -0.0333082 -0.0192983 0.150855 -0.032232 
-0.104349 0.173812 -0.0326997 -0.127583 0.192671 -0.0307956 -0.0644387 0.0666365 -0.0232887 
-0.034271 0.0814269 -0.0264855 -0.0910863 0.0883441 -0.0290944 -0.0626788 0.100655 -0.0279713 
-0.0232062 0.108317 -0.0281976 -0.125052 0.112913 -0.0253669 -0.142563 0.126568 -0.0245959 
-0.135918 0.0616342 -0.0169806 -0.0493907 0.063357 -0.0191975 -0.0397002 0.0735971 -0.0219458 
-0.00472406 0.0753958 -0.0206499 -0.143495 0.103082 -0.0177411 -0.0488331 0.167793 -0.019761 
-0.109585 0.0575284 -0.010332 -0.0726769 0.0659586 -0.0134187 -0.0164441 0.0935999 -0.00816859 
-0.135172 0.104841 -0.0105418 -0.137325 0.0554376 -0.00354463 -0.080887 0.0578554 -0.00135102 
-0.0466049 0.0579113 -0.00204887 -0.118316 0.0617801 -0.00616022 -0.104023 0.0644542 -0.00230467 
-0.0306326 0.135271 -0.0065708 -0.0460074 0.174693 -0.00115547 -0.133059 0.0625876 0.00738835 
-0.12084 0.0644237 0.0053634 -0.10924 0.0694128 0.00509356 -0.071789 0.0973034 0.0074714 
-0.143978 0.0617223 0.0136434 -0.0998035 0.058987 0.00849323 -0.0467531 0.0555427 0.0131821 
-0.130488 0.0698924 0.0148374 -0.0305907 0.0670401 0.0162613 -0.111517 0.075175 0.0171996 
-0.0411894 0.0733885 0.0219476 -0.0932629 0.10466 0.0185981 -0.128587 0.0552411 0.0245543 
-0.00722157 0.0554174 0.0304103 -0.0851565 0.0693685 0.0286724 -0.11914 0.0696326 0.0231787 
-0.025426 0.07027 0.0282401 -0.00158361 0.072755 0.029011 -0.116358 0.102946 0.0232088 
-0.0870736 0.181511 0.0242577 -0.0473837 0.0575945 0.0330796 -0.0190872 0.0580785 0.0342444 
-0.101501 0.0638631 0.0344151 -0.040938 0.0733414 0.0357918 -0.129955 0.0834356 0.0336237 
-0.0427444 0.155626 0.0364572 -0.102796 0.183208 0.034246 -0.135394 0.0692488 0.0453075 
-0.0661109 0.0622845 0.043053 -0.0119561 0.0935523 0.044969 -0.131311 0.121801 0.0436062 
-0.0660782 0.199527 0.0377727 -0.128284 0.0607728 0.0510041 -0.0759333 0.0614422 0.0472466 
-0.0351546 0.0620714 0.0488118 -0.0899068 0.171477 0.0474329 -0.0990624 0.187938 0.049347 
-0.087271 0.0567087 0.0547596 -0.140991 0.0691764 0.0557927 -0.0176833 0.0693002 0.0581316 
-0.110833 0.154852 0.0590555 -0.0401407 0.190203 0.0590509 -0.133665 0.0583063 0.061243 
-0.00717137 0.059386 0.0668591 -0.0717096 0.112179 0.0649551 -0.0475712 0.152679 0.144023 
-0.0850047 0.0990563 0.14499 -0.0898663 0.0851701 0.142785 -0.0124697 0.067077 0.144949 
-0.135342 0.0599085 0.0741824 -0.11975 0.0878109 0.0717329 -0.105297 0.092472 0.0700095 
-0.0271583 0.110887 0.072575 -0.12746 0.199924 0.0764775 -0.0484137 0.064529 0.0784448 
-0.0013468 0.0838733 0.0783703 -0.083049 0.147373 0.0772704 -0.0260893 0.19613 0.0815045 
-0.00659839 0.0615275 0.0891519 -0.0381931 0.0742853 0.0869191 -0.134815 0.105328 0.086877 
-0.0418704 0.170719 0.0869167 -0.111737 0.177511 0.0896305 -0.141346 0.194214 0.0840536 
-0.0169162 0.177735 0.0973861 -0.0296976 0.109457 0.100431 -0.120867 0.168199 0.0991068 
-0.0303966 0.182115 0.0997336 -0.140335 0.189812 0.104457 -0.0811272 0.198305 0.101539 
-0.0380398 0.0665282 0.106233 -0.0592073 0.120656 0.105695 -0.0290803 0.0593199 0.118324 
-0.061909 0.113865 0.114893 -0.0504601 0.135413 0.117715 -0.109689 0.168677 0.113556 
-0.0414603 0.178388 0.115376 -0.0296457 0.182743 0.112999 -0.0777578 0.142101 0.128374 
-0.0502952 0.161838 0.123013 -0.0729609 0.169494 0.121809 -0.131955 0.173218 0.121488 
-0.0774268 0.114534 0.133649 -0.120318 0.153448 0.130458 -0.0906485 0.15252 0.129856 
-0.134183 0.0687346 0.140636 -0.121125 0.174666 0.140927 -0.097847 0.0565922 0.143072 
-0.131147 0.199924 0.0727915 -0.131147 0.199924 0.0764782 -0.12746 0.199924 0.0727908 
-0.111522 0.235035 -0.105108 -0.102846 0.235042 -0.105108 -0.111531 0.258718 -0.105164 
-0.102856 0.258725 -0.105164 -0.111522 0.235073 -0.0964328 -0.102846 0.23508 -0.0964329 
-0.111531 0.258756 -0.0964883 -0.102856 0.258763 -0.0964883 -0.0536925 0.207646 -0.0865028 
-0.0484094 0.207646 -0.0865028 -0.0536925 0.21734 -0.0865042 -0.0484094 0.21734 -0.0865042 
-0.0536925 0.207648 -0.0812196 -0.0484094 0.207648 -0.0812196 -0.0536925 0.21734 -0.0812211 
-0.0484094 0.21734 -0.0812211 -0.112979 0.205164 -0.068716 -0.112995 0.205163 -0.0734005 
-0.117663 0.205163 -0.0686998 -0.117679 0.205162 -0.0733843 -0.112979 0.212388 -0.0687174 
-0.112995 0.212387 -0.0734019 -0.117664 0.212387 -0.0687013 -0.11768 0.212386 -0.0733858 
-0.0172499 0.205703 -0.0608493 -0.0172405 0.205694 -0.0657334 -0.0221246 0.205706 -0.0657427 
-0.0221339 0.205714 -0.0608586 -0.0172243 0.213741 -0.0657454 -0.0172336 0.21375 -0.0608613 
-0.0221084 0.213753 -0.0657547 -0.0221177 0.213761 -0.0608707 -0.010165 0.208452 -0.0553159 
-0.0144504 0.208452 -0.0553198 -0.0101646 0.202874 -0.0553142 -0.01445 0.202873 -0.0553181 
-0.0144542 0.208453 -0.0510344 -0.0101688 0.208453 -0.0510305 -0.0101685 0.202875 -0.0510288 
-0.0144539 0.202875 -0.0510326 -0.0559035 0.211106 -0.0465735 -0.0559035 0.211106 -0.0524553 
-0.0500218 0.211106 -0.0465735 -0.0500218 0.211106 -0.0524553 -0.0559035 0.223268 -0.0524553 
-0.0559035 0.223268 -0.0465735 -0.0500218 0.223268 -0.0465735 -0.0500218 0.223268 -0.0524553 
-0.0149904 0.204888 -0.0138011 -0.019698 0.204886 -0.00913969 -0.0196749 0.204885 -0.0138242 
-0.0150135 0.204889 -0.00911661 -0.0150177 0.212113 -0.00911868 -0.0197022 0.21211 -0.00914176 
-0.0196791 0.212109 -0.0138262 -0.0149946 0.212112 -0.0138032 -0.0278769 0.211378 -0.00552757 
-0.0278769 0.211378 -0.000843068 -0.0231924 0.211378 -0.000843066 -0.0231924 0.211378 -0.00552757 
-0.0231927 0.204334 -0.00552723 -0.0231927 0.204334 -0.000842731 -0.0278772 0.204334 -0.00084273 
-0.0278772 0.204334 -0.00552723 -0.0252344 0.253408 0.0301163 -0.0163602 0.252833 0.0302193 
-0.0246977 0.262282 0.0305042 -0.0158234 0.261707 0.0306072 -0.0253531 0.252934 0.0389908 
-0.0164789 0.252359 0.0390937 -0.0248164 0.261808 0.0393786 -0.0159421 0.261233 0.0394816 
-0.0542995 0.208281 0.0587497 -0.0488168 0.208281 0.05875 -0.0542995 0.218445 0.0587565 
-0.0488169 0.218445 0.0587568 -0.098146 0.266116 0.0538041 -0.0860475 0.266117 0.0538043 
-0.0981486 0.308183 0.0538104 -0.0860502 0.308185 0.0538105 -0.108811 0.206725 0.060088 
-0.108811 0.206725 0.0641739 -0.104725 0.206725 0.0641739 -0.104725 0.206725 0.060088 
-0.0542998 0.208276 0.0642324 -0.0488171 0.208276 0.0642327 -0.0542998 0.218441 0.0642392 
-0.0488171 0.218441 0.0642394 -0.098146 0.266112 0.0659025 -0.0860477 0.266114 0.0659027 
-0.0981487 0.308179 0.0659088 -0.0860504 0.30818 0.065909 -0.13736 0.210195 0.0731445 
-0.137355 0.210195 0.0686596 -0.14184 0.210195 0.068655 -0.141845 0.210195 0.0731399 
-0.141845 0.203794 0.0731398 -0.141841 0.203794 0.0686548 -0.13736 0.203794 0.0731443 
-0.137356 0.203794 0.0686594 -0.0542197 0.205151 0.0685602 -0.0542199 0.205148 0.0734442 
-0.0493358 0.205148 0.0734444 -0.0493357 0.205151 0.0685604 -0.0542198 0.212975 0.0685647 
-0.05422 0.212972 0.0734487 -0.0493359 0.212972 0.073449 -0.0493357 0.212975 0.0685649 
-0.12254 0.209882 0.081383 -0.12254 0.20348 0.081383 -0.118055 0.209882 0.081383 
-0.118055 0.20348 0.081383 -0.12254 0.209882 0.0858679 -0.12254 0.20348 0.0858679 
-0.118055 0.209882 0.0858679 -0.118055 0.20348 0.0858679 -0.108811 0.20197 0.060088 
-0.108811 0.20197 0.0641739 -0.104725 0.20197 0.0641739 -0.104725 0.20197 0.060088 
-0.12746 0.203595 0.0764776 -0.12746 0.203595 0.0727909 -0.131147 0.203596 0.0727916 
-0.131146 0.203595 0.0764783 0.0142105 0.0555526 -0.14462 0.0231932 0.0600675 -0.144527 
0.0427695 0.059992 -0.142819 0.0011631 0.0636392 -0.143364 0.142304 0.109828 -0.143232 
0.114716 0.134533 -0.143981 0.106446 0.154056 -0.144377 0.00742088 0.0570341 -0.134943 
[...]
POINT_DATA 540
FIELD FieldData 8
id 1 540 int
3781 3801 3994 3970 3744 3884 3745 2648 3937 
3894 2755 2739 2901 3730 3749 3917 3726 3907 
3785 3931 3296 3823 3802 3024 3586 3023 3981 
3773 3987 3959 3844 3852 3180 3858 3359 3403 
3685 3943 3908 3903 3734 3830 3757 3960 3808 
3976 3824 3716 3242 3873 3731 3727 3877 3966 
3932 3949 3767 3360 3738 3243 3814 3918 2962 
3758 3687 3961 3135 2961 2749 3896 3809 3774 
3853 2824 3519 3878 3759 3786 3995 3939 3686 
3244 2823 3951 3297 3919 3787 2482 3920 3895 
3885 3938 3879 3815 3925 3746 3975 3182 3971 
3953 3845 3982 2902 3831 3996 3688 3720 3962 
3825 3782 3950 3940 3988 3836 3810 3775 3803 
3587 3835 3909 3794 3747 3847 3631 3906 3955 
3989 3783 3854 3788 3846 3728 3735 3760 3911 
3406 2826 3769 3768 3864 3461 3859 3795 3863 
3871 3761 3690 3956 3875 3848 3721 3941 3910 
3765 4159 3136 3325 3904 3588 2550 3954 3776 
3898 3865 3736 3817 2509 3886 2649 3804 3748 
3754 3997 3977 3963 3874 3933 3866 3855 3837 
3984 3880 3887 3632 3921 3897 3729 3722 3689 
4154 4155 4158 4018 4022 4020 4024 4019 4023 
4021 4017 4042 4046 4044 4048 4043 4047 4045 
4041 4089 4088 4085 4084 4091 4090 4087 4086 
4063 4062 4058 4059 4064 4057 4060 4061 4144 
4140 4142 4138 4141 4137 4143 4139 4027 4026 
4031 4030 4028 4029 4025 4032 4096 4093 4092 
4075 4073 4095 4094 4074 4078 4079 4083 4082 
4080 4081 4077 4076 4010 4014 4012 4016 4011 
4015 4013 4009 4034 4038 4036 4040 4002 4006 
4004 4008 4148 4149 4145 4152 4035 4039 4037 
4033 4003 4007 4005 4001 4122 4121 4117 4118 
4116 4115 4120 4119 4066 4067 4071 4070 4068 
4069 4065 4072 4125 4123 4114 4127 4126 4124 
4113 4128 4146 4147 4151 4150 4153 4160 4156 
4157 3899 3849 3161 3927 3876 3905 3942 3972 
3818 3934 3811 3900 3952 3789 3957 3964 3838 
3762 3860 3440 3741 3717 3978 2927 3784 3965 
3945 2989 3922 3025 3944 3405 3755 3867 3985 
3796 3888 3856 3711 2867 3666 3839 3819 2591 
2481 3778 3868 3665 3869 3441 3826 3737 3766 
3812 3208 3770 3712 3805 2748 3889 3162 3840 
3881 3691 3386 3832 3806 3891 3797 3262 3793 
3841 3827 3813 3777 2483 3850 3723 2751 3929 
3928 3842 3713 3324 3851 3614 2750 3973 3763 
3946 3771 3915 3990 3890 3991 3999 3714 3385 
3914 3442 3613 3882 3912 3779 3791 3923 3870 
3913 3764 2690 3732 3263 3901 3742 3718 3820 
2790 3828 3084 3692 2963 3668 3979 3974 3667 
2484 3986 3916 3790 3998 3924 3518 2928 3947 
3750 3993 3799 3756 3807 3739 3715 3719 3892 
3298 3751 4000 3821 3834 3926 3862 3520 3861 
3833 2752 3752 3772 3958 3857 3443 3843 3968 
3798 3780 3829 3930 3326 3733 3983 3822 2868 
3872 3800 3980 3992 3935 3753 3792 2753 3725 
3902 3743 3694 3936 3967 3724 3883 3444 3969 
3693 3948 3893 2990 4099 4103 4101 4105 4100 
4104 4102 4106 4136 4133 4132 4129 4135 4134 
4131 4130 4055 4050 4054 4051 4111 4107 4049 
4056 4052 4053 4098 4109 4108 4112 4097 4110 

type 1 540 int
2 2 2 2 2 2 2 2 2 
2 2 2 2 2 2 2 2 2 
2 2 2 2 2 2 2 2 2 
2 2 2 2 2 2 2 2 2 
2 2 2 2 2 2 2 2 2 
2 2 2 2 2 2 2 2 2 
2 2 2 2 2 2 2 2 2 
2 2 2 2 2 2 2 2 2 
2 2 2 2 2 2 2 2 2 
2 2 2 2 2 2 2 2 2 
2 2 2 2 2 2 2 2 2 
2 2 2 2 2 2 2 2 2 
2 2 2 2 2 2 2 2 2 
2 2 2 2 2 2 2 2 2 
2 2 2 2 2 2 2 2 2 
2 2 2 2 2 2 2 2 2 
2 2 2 2 2 2 2 2 2 
2 2 2 2 2 2 2 2 2 
2 2 2 2 2 2 2 2 2 
2 2 2 2 2 2 2 2 2 
2 2 2 2 2 2 2 2 2 
2 2 2 2 2 2 2 2 2 
2 2 2 2 2 2 2 2 2 
2 2 2 2 2 2 2 2 2 
2 2 2 2 2 2 2 2 2 
2 2 2 2 2 2 2 2 2 
2 2 2 2 2 2 2 2 2 
2 2 2 2 2 2 2 2 2 
2 2 2 2 2 2 2 2 2 
2 2 2 2 2 2 2 2 2 
2 2 2 2 2 2 2 2 2 
2 2 2 2 2 2 2 2 2 
2 2 2 2 2 2 2 2 2 
2 2 2 2 2 2 2 2 2 
2 2 2 2 2 2 2 2 2 
2 2 2 2 2 2 2 2 2 
2 2 2 2 2 2 2 2 2 
2 2 2 2 2 2 2 2 2 
2 2 2 2 2 2 2 2 2 
2 2 2 2 2 2 2 2 2 
2 2 2 2 2 2 2 2 2 
2 2 2 2 2 2 2 2 2 
2 2 2 2 2 2 2 2 2 
2 2 2 2 2 2 2 2 2 
2 2 2 2 2 2 2 2 2 
2 2 2 2 2 2 2 2 2 
2 2 2 2 2 2 2 2 2 
2 2 2 2 2 2 2 2 2 
2 2 2 2 2 2 2 2 2 
2 2 2 2 2 2 2 2 2 
2 2 2 2 2 2 2 2 2 
2 2 2 2 2 2 2 2 2 
2 2 2 2 2 2 2 2 2 
2 2 2 2 2 2 2 2 2 
2 2 2 2 2 2 2 2 2 
2 2 2 2 2 2 2 2 2 
2 2 2 2 2 2 2 2 2 
2 2 2 2 2 2 2 2 2 
2 2 2 2 2 2 2 2 2 
2 2 2 2 2 2 2 2 2 

i 3 540 int
0 0 0 0 0 0 0 0 0 
0 0 0 0 0 0 0 0 0 
0 0 0 0 0 0 0 0 0 
0 0 0 0 0 0 0 0 0 
0 0 0 0 0 0 0 0 0 
0 0 0 0 0 0 0 0 0 
0 0 0 0 0 0 0 0 0 
0 0 0 0 0 0 0 0 0 
0 0 0 0 0 0 0 0 0 
0 0 0 0 0 0 0 0 0 
0 0 0 0 0 0 0 0 0 
0 0 0 0 0 0 0 0 0 
0 0 0 0 0 0 0 0 0 
0 0 0 0 0 0 0 0 0 
0 0 0 0 0 0 0 0 0 
0 0 0 0 0 0 0 0 0 
0 0 0 0 0 0 0 0 0 
0 0 0 0 0 0 0 0 0 
0 0 0 0 0 0 0 0 0 
0 0 0 0 0 0 0 0 0 
0 0 0 0 0 0 0 0 0 
0 0 0 0 0 0 0 0 0 
0 0 0 0 0 0 0 0 0 
0 0 0 0 0 0 0 0 0 
0 0 0 0 0 0 0 0 0 
0 0 0 0 0 0 0 0 0 
0 0 0 0 0 0 0 0 0 
0 0 0 0 0 0 0 0 0 
0 0 0 0 0 0 0 0 0 
0 0 0 0 0 0 0 0 0 
0 0 0 0 0 0 0 0 0 
0 0 0 0 0 0 0 0 0 
0 0 0 0 0 0 0 0 0 
0 0 0 0 0 0 0 0 0 
0 0 0 0 0 0 0 0 0 
0 0 0 0 0 0 0 0 0 
0 0 0 0 0 0 0 0 0 
0 0 0 0 0 0 0 0 0 
0 0 0 0 0 0 0 0 0 
0 0 0 0 0 0 0 0 0 
0 0 0 0 0 0 0 0 0 
0 0 0 0 0 0 0 0 0 
0 0 0 0 0 0 0 0 0 
0 0 0 0 0 0 0 0 0 
0 0 0 0 0 0 0 0 0 
0 0 0 0 0 0 0 0 0 
0 0 0 0 0 0 0 0 0 
0 0 0 0 0 0 0 0 0 
0 0 0 0 0 0 0 0 0 
0 0 0 0 0 0 0 0 0 
0 0 0 0 0 0 0 0 0 
0 0 0 0 0 0 0 0 0 
0 0 0 0 0 0 0 0 0 
0 0 0 0 0 0 0 0 0 
0 0 0 0 0 0 0 0 0 
0 0 0 0 0 0 0 0 0 
0 0 0 0 0 0 0 0 0 
0 0 0 0 0 0 0 0 0 
0 0 0 0 0 0 0 0 0 
0 0 0 0 0 0 0 0 0 
0 0 0 0 0 0 0 0 0 
0 0 0 0 0 0 0 0 0 
0 0 0 0 0 0 0 0 0 
0 0 0 0 0 0 0 0 0 
0 0 0 0 0 0 0 0 0 
0 0 0 0 0 0 0 0 0 
0 0 0 0 0 0 0 0 0 
0 0 0 0 0 0 0 0 0 
0 0 0 0 0 0 0 0 0 
0 0 0 0 0 0 0 0 0 
0 0 0 0 0 0 0 0 0 
0 0 0 0 0 0 0 0 0 
0 0 0 0 0 0 0 0 0 
0 0 0 0 0 0 0 0 0 
0 0 0 0 0 0 0 0 0 
0 0 0 0 0 0 0 0 0 
0 0 0 0 0 0 0 0 0 
0 0 0 0 0 0 0 0 0 
0 0 0 0 0 0 0 0 0 
0 0 0 0 0 0 0 0 0 
0 0 0 0 0 0 0 0 0 
0 0 0 0 0 0 0 0 0 
0 0 0 0 0 0 0 0 0 
0 0 0 0 0 0 0 0 0 
0 0 0 0 0 0 0 0 0 
0 0 0 0 0 0 0 0 0 
0 0 0 0 0 0 0 0 0 
0 0 0 0 0 0 0 0 0 
0 0 0 0 0 0 0 0 0 
0 0 0 0 0 0 0 0 0 
0 0 0 0 0 0 0 0 0 
0 0 0 0 0 0 0 0 0 
0 0 0 0 0 0 0 0 0 
0 0 0 0 0 0 0 0 0 
0 0 0 0 0 0 0 0 0 
0 0 0 0 0 0 0 0 0 
0 0 0 0 0 0 0 0 0 
0 0 0 0 0 0 0 0 0 
0 0 0 0 0 0 0 0 0 
0 0 0 0 0 0 0 0 0 
0 0 0 0 0 0 0 0 0 
0 0 0 0 0 0 0 0 0 
0 0 0 0 0 0 0 0 0 
0 0 0 0 0 0 0 0 0 
0 0 0 0 0 0 0 0 0 
0 0 0 0 0 0 0 0 0 
0 0 0 0 0 0 0 0 0 
0 0 0 0 0 0 0 0 0 
0 0 0 0 0 0 0 0 0 
0 0 0 0 0 0 0 0 0 
0 0 0 0 0 0 0 0 0 
0 0 0 0 0 0 0 0 0 
0 0 0 0 0 0 0 0 0 
0 0 0 0 0 0 0 0 0 
0 0 0 0 0 0 0 0 0 
0 0 0 0 0 0 0 0 0 
0 0 0 0 0 0 0 0 0 
0 0 0 0 0 0 0 0 0 
0 0 0 0 0 0 0 0 0 
0 0 0 0 0 0 0 0 0 
0 0 0 0 0 0 0 0 0 
0 0 0 0 0 0 0 0 0 
0 0 0 0 0 0 0 0 0 
0 0 0 0 0 0 0 0 0 
0 0 0 0 0 0 0 0 0 
0 0 0 0 0 0 0 0 0 
0 0 0 0 0 0 0 0 0 
0 0 0 0 0 0 0 0 0 
0 0 0 0 0 0 0 0 0 
0 0 0 0 0 0 0 0 0 
0 0 0 0 0 0 0 0 0 
0 0 0 0 0 0 0 0 0 
0 0 0 0 0 0 0 0 0 
0 0 0 0 0 0 0 0 0 
0 0 0 0 0 0 0 0 0 
0 0 0 0 0 0 0 0 0 
0 0 0 0 0 0 0 0 0 
0 0 0 0 0 0 0 0 0 
0 0 0 0 0 0 0 0 0 
0 0 0 0 0 0 0 0 0 
0 0 0 0 0 0 0 0 0 
0 0 0 0 0 0 0 0 0 
0 0 0 0 0 0 0 0 0 
0 0 0 0 0 0 0 0 0 
0 0 0 0 0 0 0 0 0 
0 0 0 0 0 0 0 0 0 
0 0 0 0 0 0 0 0 0 
0 0 0 0 0 0 0 0 0 
0 0 0 0 0 0 0 0 0 
0 0 0 0 0 0 0 0 0 
0 0 0 0 0 0 0 0 0 
0 0 0 0 0 0 0 0 0 
0 0 0 0 0 0 0 0 0 
0 0 0 0 0 0 0 0 0 
0 0 0 0 0 0 0 0 0 
0 0 0 0 0 0 0 0 0 
0 0 0 0 0 0 0 0 0 
0 0 0 0 0 0 0 0 0 
0 0 0 0 0 0 0 0 0 
0 0 0 0 0 0 0 0 0 
0 0 0 0 0 0 0 0 0 
0 0 0 0 0 0 0 0 0 
0 0 0 0 0 0 0 0 0 
0 0 0 0 0 0 0 0 0 
0 0 0 0 0 0 0 0 0 
0 0 0 0 0 0 0 0 0 
0 0 0 0 0 0 0 0 0 
0 0 0 0 0 0 0 0 0 
0 0 0 0 0 0 0 0 0 
0 0 0 0 0 0 0 0 0 
0 0 0 0 0 0 0 0 0 
0 0 0 0 0 0 0 0 0 
0 0 0 0 0 0 0 0 0 
0 0 0 0 0 0 0 0 0 
0 0 0 0 0 0 0 0 0 
0 0 0 0 0 0 0 0 0 
0 0 0 0 0 0 0 0 0 
0 0 0 0 0 0 0 0 0 
0 0 0 0 0 0 0 0 0 
0 0 0 0 0 0 0 0 0 

v 3 540 double
0.0080156891962 -0.0015029605931 0.004447886628 0.010048934566 -0.00070430313784 0.0034683114765 -0.015970077835 0.15166809512 0.0078683031147 
-0.13317801248 0.16221021249 0.0070055395523 0.0084999301845 0.1323890659 0.0081926522313 0.0041098429884 0.30328549985 0.0085481915591 
-0.0056303209371 0.0085283445581 0.016039859049 -0.027173646627 0.011902077028 0.021408443641 0.00042695319134 0.13846042764 0.029105660503 
0.0046274359853 0.008066801115 -0.0032981339191 -0.015825932323 -0.0093599622889 0.054880867859 0.0086390268809 0.038845535794 -0.0015567670795 
0.019798951085 0.040401127349 0.0076420378047 -0.0073663242247 0.069707047504 -0.21902865838 -0.19048707261 0.037453699347 -0.044591951551 
-0.078830096885 0.05744859893 0.00019912973901 0.088754276994 0.22662720955 0.01755179333 0 0.410001241 0 
-0.021953360345 0.025884201396 0.04599242959 -0.055110835015 0.016838623604 0.044337729087 0.012718550083 0.067616469755 0.01425317236 
-0.027682094838 0.035560805087 0.07204171858 -0.040956546694 0.26237529859 -0.077021290032 0.012445841211 0.010247161759 0.022377678425 
-0.052806535397 0.024323413529 0.073682984456 -0.032235806057 0.015450186834 0.090000174597 0.096087284017 0.12261288527 -0.004294039915 
-0.046543241901 0.073906791384 0.057776194531 -0.031250205073 0.21919385107 0.082559184695 -0.00066328633309 0.27334262606 0.093316999735 
-0.023837693753 0.013424326694 0.030482934101 -0.024108631974 0.052866387327 -0.0092589620461 -0.005644904192 0.11634111591 0.004857108426 
0.0527175037 0.1461298439 -0.014994661505 -0.097613623005 0.14261836488 -0.069878233524 -0.0096575554909 0.27005267014 0.0080604148417 
0.12933529232 0.042588217061 0.051919416551 0.010421709988 0.032597662155 0.089304931032 -0.21558529215 -0.019513045433 -0.17941226195 
0.035121297983 0.12847363527 0.096812815135 0 0.39896583638 0 -0.02568388976 0.17898130461 0.043235618101 
0.17906924697 0.04465336239 0.12954131523 -0.061946525106 -0.050296642255 -0.036391112494 -0.013011560337 0.21057775716 -0.067361238852 
-0.00010155981897 0.4026845298 0.00010091191765 0 0.4099646538 0 0.084560273476 0.0049494460269 0.023097140815 
8.7304082862e-05 0.05658216547 0.0490846904 -0.041178332009 0.14957725344 0.14796284926 -0.10514529648 0.01736526256 0.032910920883 
-0.023683525094 0.038479039595 0.077669425022 -0.051741169069 0.04058371722 -0.053836692909 -0.19555073313 0.025642988905 -0.073980851181 
0.0048568421874 0.08945452959 -0.10391745121 0 0.39875905054 0 -0.004507024569 0.40045571211 -0.019038581245 
-0.1093329276 0.013073293453 -0.054392005946 -0.30322048806 -0.00067532323441 -0.23970168846 0.0073616794846 0.22860097262 0.0056379145434 
0.12958850901 0.04953116576 0.11191217716 0.01465547743 -0.0061272559933 -0.046166658494 -0.0039167831326 0.051254836739 -0.001557137884 
0.21273066105 0.083784470045 0.0040210919325 0 0.39374558319 -0.0047274651976 0.095677381331 0.0044200649861 -0.086041273012 
0.011388376557 0.041364487349 -0.11565082641 0.0720265258 0.092481050782 0.10567728676 -0.035862658324 0.090291244517 0.064308977049 
-0.10659233928 0.13529730026 -0.13355815864 0.088817694295 0.1124998154 -0.053149249242 0.1287683514 0.19121853907 0.11076579337 
0.021593665187 0.0095357454859 0.083271952659 0.13721431181 0.10181133851 -0.021435361436 -0.081077584478 0.27179021998 -0.19453844851 
0 0.39904491296 0 0 0.40508628054 1.1391752074e-05 0.068650783752 0.018026213225 0.060475464125 
0.1362875538 0.039257522085 -0.0091534098264 -0.016476201133 0.099454444818 -0.084306564822 -0.082935369571 0.12454513688 0.22031739751 
-0.011140416409 0.097767829241 -0.12921837017 0.048239276178 0.099225294711 0.24497616456 0.086954209449 0.2526704874 -0.16366621469 
0.029577089408 0.051621073356 0.036709279218 0.13889610943 -0.022972110717 0.059703086428 0.10344903995 0.054815171856 -0.0038259629395 
-0.019593090008 0.057115403233 0.099738465183 0.028538407798 0.025056636625 -0.064268107381 0 0.38773520475 0 
-0.040935584861 0.0080659946873 -0.037605969439 0.031590655792 0.043572963739 -0.02529784089 -0.033229108723 0.13146619811 -0.072439225811 
0.0094198569489 0.15103026516 -0.022541178981 -0.0027343479842 0.020591615742 0.016982238916 -0.02456028625 0.011359228832 -0.0113720337 
0.027032685635 0.021794619309 -0.024559164227 -0.05241557277 -7.6474465414e-05 -0.038101718797 -0.079995245439 -0.017084149868 -0.024509996072 
-0.15104217532 0.21350433729 -0.08847513098 -0.018713004647 0.38875185117 7.8913229596e-15 -0.0021145546064 0.038207161077 0.086087109658 
0.047105971364 0.047126373854 0.013261584049 -0.04239299415 0.032731008683 -0.025360640441 -0.0061600299512 0.11429591419 0.13432692073 
0.0050133738183 0.03415893043 0.0051985059679 -0.047772226234 0.0132061549 0.03151757883 0.080529813377 0.0057628936695 0.0071294393731 
-0.0094375276358 0.047072839183 -0.0043676764478 0.077184004256 0.066064098953 0.077633274331 0.017297158063 0.051523199259 0.034196204277 
0.058087612515 0.020893658911 0.057573748421 -0.029513261594 0.16173266479 0.02841832475 0.058714015235 0.0017270508604 -0.0052240249124 
0.073524872124 -0.0089080269211 0.085640873075 -0.021958819501 0.054191597684 0.048298013441 -0.0039913111495 0.045910097796 0.029473773607 
0.015342748692 0.015639683378 -0.032806018651 0.14414420127 0.070733586407 0.116579113 -0.093883439559 0.14252171153 0.082969879669 
-0.0021049833578 0.38899466784 -0.000126565171 0.045861773211 0.010416166083 0.066043061475 -0.029110559063 0.018207847277 -0.076876075613 
-0.046054797591 0.035397971386 0.092164701031 -0.19451755495 0.039668183639 -0.064885900376 0.024759942221 0.078324211804 0.044473428344 
-0.00052740355422 0.38710693906 -0.0011288573072 -0.0020887119363 0.38986351732 -0.0070491576428 -0.065001341762 0.019554148352 0.081816480773 
0.040692486761 0.040028993819 0.016705036457 0.13707801014 0.10385176188 0.11392848556 -0.028734807798 0.24194419456 -0.0010331898798 
0 0.41007381017 0 -0.055878085168 0.018552676409 0.077319089015 -0.0033120346244 0.036987221945 0.014520019751 
0.0058662362083 -0.0047575354982 0.1205492242 -0.0016610994383 0.29654940525 0.0087496036546 0.0020429030869 0.39521847008 -0.0010600737839 
0.015763933914 0.0065948336356 0.094849352011 0.072092493958 0.016689547551 -0.0060944951496 0.048689639876 0.084903789202 0.047570047855 
0.012190777852 0.32929773123 0.012633784709 0 0.41052549956 0 0.048787878444 0.025521855283 0.10157198777 
0.091413329724 -0.020382990837 0.10182231993 -0.018697854525 0.19836571032 0.034234384001 0.003430585782 0.26858144658 0.036345321829 
-0.057336234664 0.064076704248 -0.023730783112 -0.066149991525 0.065765809604 -0.020818425339 0.13835760544 0.04733325279 -0.0010310392601 
0.047994318171 0.039418765254 0.071322416347 0.031131950044 0.032706997154 0.10031977015 -0.13645977946 0.12244416595 0.087249181893 
-0.076416026534 0.17725342488 -0.024615689046 0.03052300982 0.3831155383 0.029770172098 -0.00044574958215 0.029243049089 0.10201140501 
-0.05154172184 0.10765359284 0.035977243928 0.044804293718 0.32049728826 -0.0062287931832 0 0.38755395842 -0.0050852537353 
-0.14684183204 0.0079436499743 -0.079768840288 -0.012212897362 0.075823784745 -0.18361467497 0.08060329694 0.0325350987 0.01274380369 
0.0002814165965 0.39586236908 -0.0042450652735 -0.00036883905222 0.40129851273 -0.0077537456699 0 0.39872827304 0 
0 0.38761842277 0 -0.0033082998542 0.13377592098 -0.0033247496929 0.0012503121485 0.38702661056 -0.005926866043 
-0.0046666478446 0.28784143851 -0.0046798590522 0 0.41016565709 9.1963837408e-06 0.0002436659938 0.41148920957 0.0063921664547 
0.16820795446 0.029549338883 0.12446726565 0.033991363402 0.19247764267 -0.017820487125 0.018667793496 0.027909356118 -0.091149253707 
-0.018673129003 0.22509155007 0.014510142177 0.042256730961 0.27150018908 0.1254322865 0 0.3987994427 6.9043932791e-06 
0.0024336544151 0.40286253151 0.0042270621109 -0.002634341908 0.41110012695 0.0010203462189 -0.019718467175 0.29448520505 0.12092734083 
-0.00032362647397 0.39932044177 -0.0012764948875 -0.027545708121 0.38422685286 0.11030070993 0.00051441565056 0.39864167423 0.0017178022421 
-0.077949132161 0.1640541936 -0.025301185442 0.020188320678 0.34687093157 -0.00040929342903 0.086053560792 0.32893311383 -0.0017445639745 
0.11995622452 0.011863667935 0.0047441828118 -0.22880268682 0.26789886558 -0.019808350501 -0.078040903224 0.012317233288 -0.0024669848271 
-0.026014305029 0.38330557062 -0.025170945002 -0.02521620521 0.38320886605 0.030568666875 0.02972491565 0.38321229385 -0.025968653471 
-0.04125526714 0.39714501683 -0.10814853943 0.014484300369 0.39721888679 -0.10814812224 -0.041363751989 0.62701657341 -0.10876561409 
0.014375274984 0.62709110505 -0.10876690403 -0.041254969846 0.39756815431 -0.052408258422 0.01448475908 0.39764093675 -0.052409461063 
-0.041363410614 0.62743684168 -0.053027349337 0.014375689687 0.62751246083 -0.053026846719 -0.027869684498 0.28399728714 -0.032741089804 
0.027869684498 0.28399728714 -0.032741089804 -0.027869684498 0.5138839808 -0.032788350519 0.027869684498 0.5138839808 -0.032788350519 
-0.027869684498 0.28404593121 0.02300133675 0.027869684498 0.28404593121 0.02300133675 -0.027869684498 0.51390399945 0.022947959576 
0.027869684498 0.51390399945 0.022947959576 0.028300400562 0.28383861681 0.027443814697 0.027441805653 0.28378351731 -0.028295228933 
-0.027437984554 0.28381665778 0.028303252029 -0.028297900317 0.2837617036 -0.027436154755 0.028268199319 0.51371084185 0.02736344489 
0.027410033775 0.51365603029 -0.028375919114 -0.027470045737 0.51368901669 0.028222490779 -0.028330390754 0.51363405991 -0.027516452888 
0.041037438931 0.29810548779 0.018105529982 0.041454849553 0.29772667231 -0.037633813435 -0.014284409368 0.29823392538 -0.038050959387 
-0.014701803387 0.29861267019 0.017688385762 0.042202065821 0.52759733847 -0.038186793982 0.041784671354 0.52797344646 0.017552431535 
-0.013537174632 0.52810456299 -0.038603938394 -0.013954587964 0.52848074188 0.01713528591 0.027395783495 0.51143677053 -0.031325733805 
-0.028342997393 0.51141562135 -0.031658229493 0.027425222168 0.28156419919 -0.031169693261 -0.028313663643 0.28154520413 -0.031502222163 
-0.028675680531 0.51152423388 0.024081531838 0.027064183647 0.51154256767 0.024413313223 0.027093551701 0.28167119874 0.024569178258 
-0.028646275712 0.28164938815 0.024237429876 -0.027869684498 0.29556041286 0.027869684498 -0.027869684498 0.29556041286 -0.027869684498 
0.027869684498 0.29556041286 0.027869684498 0.027869684498 0.29556041286 -0.027869684498 -0.027869684498 0.52543280277 -0.027869684498 
-0.027869684498 0.52543280277 0.027869684498 0.027869684498 0.52543280277 0.027869684498 0.027869684498 0.52543280277 -0.027869684498 
0.025500417394 0.28563328015 -0.028758702966 -0.031467077612 0.28555187613 0.025752447429 -0.030238679881 0.28547528176 -0.029987151782 
0.024272116576 0.28571038237 0.02698067881 0.024039577874 0.51558300459 0.026866780198 -0.031699317344 0.51542428186 0.025638653516 
-0.030470899177 0.51534645767 -0.030100053696 0.025267853047 0.5155056899 -0.02887149513 -0.026121505282 0.50778562449 -0.029617891699 
-0.02612138084 0.50780481094 0.026121399583 0.029617872957 0.5077856242 0.026121486537 0.029617943558 0.5077792448 -0.029617924815 
0.029599274146 0.28984175746 -0.029599292909 0.029599398665 0.28986094375 0.026139943113 -0.026139995026 0.28986732271 0.026139976268 
-0.026139924348 0.28986094346 -0.029599379904 0.11830098307 0.56583568283 0.012595852653 0.17403208688 0.5597149904 0.013692945796 
0.12402148847 0.62156649761 0.016733430484 0.17975335516 0.61544604557 0.017830955039 0.11703767093 0.56079090526 0.068329273936 
0.17276884066 0.55467007836 0.069426445784 0.12275784442 0.61652166886 0.072466301785 0.17848992344 0.61040095976 0.073563681025 
-0.027762355083 0.29218913425 -0.034200133671 0.027976997079 0.29218938193 -0.03419201348 -0.027762433977 0.51011885482 -0.03399200615 
0.027976824269 0.51011877913 -0.033983779859 -0.034577822544 0.43592013244 0.0096253660597 0.021161928945 0.43592994543 0.0096262539971 
-0.034595501817 0.69544360311 0.0096671076699 0.021144272231 0.69545667021 0.0096676739882 -0.027869684498 0.51376316574 -0.027869684498 
-0.027869684498 0.51376316574 0.027869684498 0.027869684498 0.51376316574 0.027869684498 0.027869684498 0.51376316574 -0.027869684498 
-0.027770376588 0.29204441986 0.021539136222 0.027969006198 0.2920440626 0.021547070605 -0.027770558693 0.50997627971 0.021747783305 
0.027968936667 0.50997680897 0.021755611665 -0.034578311641 0.43589179333 0.065364687883 0.021160706274 0.43590466554 0.065365507724 