# vtk DataFile Version 5.1
Generated by LIGGGHTS
ASCII
DATASET POLYDATA
POINTS 400 float
-0.064687 0.055908 -0.144254 -0.0509839 0.0553844 -0.143 -0.0233209 0.0548566 -0.1445 
-0.144917 0.0695482 -0.144084 -0.109443 0.0647527 -0.143397 -0.0643212 0.0666203 -0.143201 
-0.023298 0.064671 -0.143218 -0.109856 0.0767815 -0.143769 -0.094766 0.0748536 -0.144949 
-0.100227 0.0868085 -0.144529 -0.143242 0.0581793 -0.143186 -0.114773 0.0559806 -0.141651 
-0.0399246 0.0585954 -0.138193 -0.129867 0.0703837 -0.141939 -0.117952 0.0690444 -0.138598 
-0.0092845 0.0687734 -0.142248 -0.0512448 0.0857309 -0.137276 -0.137479 0.0573314 -0.133659 
-0.127336 0.0600333 -0.131567 -0.0753261 0.0552601 -0.12831 -0.0505736 0.0571535 -0.131636 
-0.142904 0.0655853 -0.134529 -0.0565367 0.0647905 -0.13339 -0.0229866 0.0690135 -0.127591 
-0.102173 0.0725889 -0.132955 -0.142421 0.0556099 -0.122731 -0.0601531 0.0556881 -0.126488 
-0.0410549 0.055155 -0.124326 -0.105008 0.063187 -0.12315 -0.040069 0.0648158 -0.122789 
-0.0246627 0.0622123 -0.119123 -0.137528 0.0656902 -0.121521 -0.101073 0.0559362 -0.112754 
-0.0797014 0.0665663 -0.11282 -0.108567 0.0608547 -0.10641 -0.0566802 0.0558867 -0.109037 
-0.0276375 0.0644493 -0.108819 -0.0135128 0.0638735 -0.109124 -0.0803097 0.0917868 -0.11232 
-0.00821843 0.05935 -0.0996552 -0.144104 0.0674964 -0.0939242 -0.0568765 0.0656568 -0.0996263 
-0.044301 0.0692924 -0.10032 -0.0376925 0.0826691 -0.103091 -0.107627 0.0577962 -0.0931882 
-0.00562523 0.0773677 -0.0954441 -0.138559 0.0851297 -0.0939603 -0.0788777 0.0629223 -0.0906777 
-0.0301472 0.0556259 -0.0913376 -0.0862438 0.0720805 -0.0889079 -0.0415978 0.0646253 -0.084977 
-0.0689631 0.0638532 -0.0870598 -0.105929 0.0548934 -0.078706 -0.0277972 0.070429 -0.0828558 
-0.103426 0.103447 -0.0782337 -0.051051 0.100785 -0.0824913 -0.0546892 0.06337 -0.0704387 
-0.108405 0.0669242 -0.0751013 -0.0848825 0.0568846 -0.0727564 -0.115325 0.0971289 -0.0710407 
-0.00863046 0.055649 -0.0606346 -0.117885 0.067067 -0.0625114 -0.0901121 0.0635864 -0.0610118 
-0.0624019 0.0775393 -0.0668923 -0.0235292 0.0940585 -0.0604322 -0.119555 0.0552857 -0.0462086 
-0.139578 0.0642772 -0.0466217 -0.101854 0.0704975 -0.0507437 -0.059114 0.0741139 -0.048759 
-0.0825843 0.086667 -0.0479324 -0.0445626 0.089045 -0.0508423 -0.0121344 0.094631 -0.0521819 
-0.0529626 0.102248 -0.0495144 -0.065115 0.0598502 -0.0418633 -0.0217399 0.064083 -0.0393631 
-0.104349 0.0620797 -0.0326997 -0.127583 0.0792468 -0.0307988 -0.0634462 0.0771825 -0.0331206 
-0.0294986 0.0605206 -0.0231776 -0.0768216 0.0650211 -0.0291454 -0.0958356 0.0582472 -0.0195366 
-0.0780651 0.0560206 -0.0186766 -0.0488331 0.0592274 -0.019761 -0.0888511 0.0685315 -0.0165568 
-0.0584383 0.0559673 -0.0122007 -0.079937 0.0547841 -0.00809699 -0.062701 0.0677292 -0.0165503 
-0.0768436 0.0656303 -0.0112871 -0.0684759 0.0755065 -0.0146836 -0.0164785 0.0963508 -0.0110347 
-0.114205 0.0587739 -0.0045827 -0.0967971 0.0561041 -0.000433673 -0.0407677 0.0658425 -0.00115547 
-0.0881785 0.0676211 -0.00658681 -0.0687122 0.0627146 -0.00421853 -0.0688846 0.0767148 -0.00443552 
-0.0260217 0.0961855 -0.00269824 -0.112584 0.0556065 0.006792 -0.0744483 0.0548933 0.00418672 
-0.104237 0.0608297 0.00446782 -0.0951991 0.0663244 0.00111781 -0.0857982 0.0579727 0.000449169 
-0.000468907 0.0640404 0.00555581 -0.0768742 0.0642371 0.00214339 -0.0634614 0.0745537 0.00500156 
-0.00275692 0.0835186 0.0032678 -0.142839 0.0571172 0.0145467 -0.134396 0.055006 0.00751924 
-0.0878621 0.0550026 0.00992412 -0.0492547 0.0565519 0.00999122 -0.0203733 0.0576245 0.0147858 
-0.00801873 0.0559096 0.0130802 -0.119762 0.0634129 0.0104428 -0.0984752 0.0615857 0.0129765 
-0.0789962 0.0590313 0.013388 -0.059621 0.0639639 0.0131662 -0.0500016 0.0673083 0.0117475 
-0.0304232 0.0608401 0.0150208 -0.0738569 0.0682182 0.0137266 -0.145017 0.0770272 0.00820239 
-0.0806103 0.0767542 0.0136661 -0.0200869 0.0809422 0.00798359 -0.11188 0.0814611 0.00816883 
-0.13076 0.0562132 0.0178334 -0.115863 0.0551543 0.0173846 -0.0968785 0.0556655 0.0236086 
-0.0498812 0.0557893 0.0220242 -0.117193 0.0637736 0.0223988 -0.0679993 0.0632715 0.0222918 
-0.00313375 0.0631577 0.0240154 -0.137433 0.07411 0.0141659 -0.0621389 0.0926472 0.0227366 
-0.144117 0.0578592 0.0251183 -0.112639 0.055578 0.0293547 -0.144982 0.0662298 0.0306547 
-0.0864842 0.0725923 0.0242932 -0.137596 0.0649202 0.0222265 -0.0170232 0.0692709 0.0248317 
-0.0572814 0.0554539 0.0309711 -0.00860289 0.0608561 0.0322795 -0.0619385 0.0646762 0.0371652 
-0.139808 0.0701129 0.038192 -0.102212 0.0740461 0.0362198 -0.0425639 0.0728906 0.0367928 
-0.123572 0.056278 0.0438794 -0.0335096 0.0609173 0.0436224 -0.128467 0.078653 0.0436434 
-0.0660782 0.0847065 0.0377727 -0.0894417 0.0884428 0.044983 -0.0482889 0.0563409 0.0498817 
-0.0996344 0.0772771 0.0496438 -0.0902173 0.128759 0.049352 -0.114247 0.0626485 0.0555181 
-0.0656825 0.0557752 0.0590008 -0.0708263 0.0637687 0.0537586 -0.0401407 0.0752554 0.0590509 
-0.104908 0.0553284 0.0637069 -0.0924057 0.0616441 0.06405 -0.106768 0.0926762 0.062131 
-0.0515694 0.101373 0.0621647 -0.0851381 0.0582544 0.0713821 -0.139758 0.0945659 0.0708229 
-0.129951 0.0908007 0.0739738 -0.0517667 0.0976048 0.073052 -0.0955942 0.057634 0.0790145 
-0.061943 0.0594685 0.0810603 -0.00576179 0.0612563 0.0794674 -0.114431 0.0715576 0.0812348 
-0.0813258 0.0626942 0.0902616 -0.0419492 0.0598776 0.0881053 -0.141346 0.0825699 0.0840536 
-0.0260893 0.0876146 0.0829284 -0.120295 0.0949773 0.0836254 -0.111634 0.0651474 0.0918015 
-0.0655971 0.0618356 0.0924583 -0.0169162 0.0692014 0.0973861 -0.121217 0.0598316 0.100766 
-0.140335 0.0749661 0.104455 -0.0287713 0.0719996 0.101362 -0.0811954 0.0830881 0.0997494 
-0.0290899 0.101519 0.101044 -0.0579011 0.0549543 0.11183 -0.109689 0.0570128 0.113555 
-0.0421417 0.0655868 0.114192 -0.028908 0.0676354 0.112713 -0.0595492 0.0777773 0.113134 
-0.132099 0.0615987 0.121007 -0.0637322 0.056766 0.120253 -0.0502292 0.0658413 0.123307 
-0.125971 0.0563237 0.130573 -0.114744 0.0604189 0.130345 -0.0485317 0.0774763 0.133846 
-0.0217332 0.0754731 0.1269 -0.0360099 0.0621121 0.13717 -0.0566358 0.0965422 0.141456 
-0.0735985 0.057238 0.143586 -0.0545136 0.058085 0.144336 -0.0885627 0.0686913 0.143229 
-0.0636694 0.0667608 0.143899 -0.052586 0.0803232 0.144186 -0.0343435 0.075688 0.144231 
0.0297524 0.0562505 -0.142968 0.0402578 0.0587457 -0.14499 0.138855 0.0563478 -0.144552 
0.0237472 0.0640835 -0.144978 0.105779 0.0590027 -0.143829 0.144164 0.0665856 -0.144628 
0.0222532 0.0751921 -0.144398 0.046938 0.0796097 -0.1438 0.0135064 0.0553367 -0.140382 
0.0436062 0.057913 -0.135627 0.132041 0.0580388 -0.135098 0.0137227 0.0649623 -0.142971 
0.0358869 0.064784 -0.138266 0.0548705 0.0586028 -0.142028 0.00424986 0.0688587 -0.143247 
0.130209 0.067447 -0.13958 0.0354544 0.0572175 -0.129482 0.062495 0.0603425 -0.133704 
0.120981 0.0652429 -0.134553 0.142105 0.0608875 -0.131396 0.00595897 0.0660875 -0.130733 
0.0184715 0.0657065 -0.133359 0.0216361 0.083665 -0.129443 0.0230837 0.0614919 -0.125729 
0.0489104 0.0616056 -0.127563 0.0742464 0.0617541 -0.121625 0.0119711 0.0626987 -0.120751 
0.00643272 0.0716492 -0.121935 0.0263563 0.0719638 -0.123834 0.119656 0.0610292 -0.122835 
0.0475502 0.055285 -0.11454 0.101308 0.056113 -0.119821 0.0180596 0.0681027 -0.112478 
0.0572244 0.0630172 -0.118559 0.0273638 0.074772 -0.114264 0.0942053 0.0599856 -0.112201 
0.0279621 0.060932 -0.112009 0.0382989 0.0606248 -0.111159 0.11816 0.0681675 -0.105165 
0.0142283 0.055948 -0.0984865 0.0290118 0.0550926 -0.10154 0.0449455 0.0621336 -0.0976362 
0.0528931 0.0551514 -0.10218 0.093915 0.0593273 -0.101309 0.0352882 0.0644765 -0.100385 
0.0873022 0.0873366 -0.0988553 0.0605458 0.0556942 -0.0956904 0.136269 0.063458 -0.0936144 
0.056519 0.0658598 -0.0979392 0.0691011 0.0612008 -0.0945544 0.00888211 0.0725476 -0.0965389 
0.0956343 0.0702234 -0.0958953 0.0119908 0.0574517 -0.0831984 0.050934 0.0573783 -0.0888915 
0.0687643 0.0562002 -0.083347 0.106047 0.0553803 -0.0883651 0.000333047 0.063421 -0.08313 
0.0451992 0.0634763 -0.0801433 0.0571007 0.0617704 -0.0822162 0.0803057 0.0684807 -0.0859693 
0.0254731 0.0809237 -0.0888893 0.0906317 0.0814433 -0.0853326 0.0250895 0.0617425 -0.073512 
0.0939356 0.0633236 -0.0805425 0.104623 0.0637706 -0.0699478 0.07916 0.0679381 -0.0727098 
0.0629813 0.0753451 -0.0720889 0.0379628 0.0788003 -0.0698659 0.00175528 0.0565741 -0.0594178 
0.0226685 0.0565037 -0.0615109 0.0489466 0.0566829 -0.0578475 0.0117311 0.0572386 -0.055217 
0.0300427 0.0578061 -0.0531143 0.0853605 0.0665168 -0.0564998 0.116199 0.0697961 -0.055688 
0.133462 0.0596854 -0.0513065 0.0658769 0.0742959 -0.0532386 0.0383684 0.0582543 -0.0473912 
0.057465 0.0610449 -0.0471925 0.00942889 0.0618178 -0.0453659 0.0557202 0.0750431 -0.0489374 
0.0547777 0.0935436 -0.0460086 0.0682018 0.0575669 -0.0405517 0.128417 0.0568769 -0.0411607 
0.0841556 0.0668606 -0.0394974 0.129183 0.0703473 -0.0375775 0.015831 0.0881581 -0.0431264 
0.0481565 0.0641051 -0.0361367 0.03745 0.086825 -0.0327599 0.113948 0.0821788 -0.0292425 
0.132697 0.0577569 -0.0265436 0.0190596 0.0723074 -0.0269865 0.0628011 0.0587813 -0.026598 
0.128588 0.0554963 -0.0155159 0.143816 0.0563209 -0.0175351 0.143572 0.0662663 -0.0165343 
0.0993224 0.0589443 -0.0101331 0.0557949 0.06408 -0.0137721 0.0143217 0.0636127 -0.000856332 
0.143798 0.057046 -0.00337868 0.0313511 0.0684679 -0.00491586 0.0761704 0.0681419 -0.00114286 
0.0932314 0.0706698 -0.00544772 0.0482582 0.0665671 -0.0013158 0.048547 0.0552668 0.00277516 
0.0656774 0.055123 0.00654492 0.0832434 0.0583318 0.000264027 0.114706 0.0966606 0.143283 
0.105888 0.0687437 0.00164741 0.0531328 0.0755912 0.00488362 0.103346 0.08453 0.00499523 
0.0782536 0.0565825 0.0120379 0.0249416 0.0662377 0.0118462 0.0561972 0.0589822 0.0125025 
0.0667048 0.0654112 0.00821654 0.0990646 0.0652008 0.0122718 0.0218882 0.0859451 0.00879274 
0.0617764 0.0552262 0.0197267 0.0750788 0.0560048 0.0215971 0.104741 0.0558768 0.0161374 
0.142354 0.0608645 0.0160998 0.118229 0.0635599 0.0140741 0.0960426 0.0810941 0.0213147 
0.0918524 0.0573833 0.0289649 0.11354 0.0555228 0.0273805 0.129641 0.0550591 0.027233 
0.079577 0.0622712 0.0294264 0.101907 0.0652172 0.0244792 0.0253685 0.0697878 0.0238318 
0.0736895 0.0557872 0.040269 0.103734 0.0634405 0.0387721 0.133152 0.0615564 0.0343731 
0.0954933 0.0693587 0.0369849 0.109905 0.0715567 0.0348168 0.0930846 0.086292 0.0359854 
0.0198547 0.0561156 0.0391491 0.0368896 0.0559304 0.0423212 0.115689 0.0549458 0.0380928 
0.127346 0.0555458 0.0406974 0.142238 0.0551646 0.0389107 0.0178196 0.0667246 0.0371732 
0.114134 0.0648981 0.0410727 0.0315408 0.0783168 0.0388373 0.078808 0.0674069 0.0407991 
0.105073 0.0745755 0.0439378 0.132412 0.0638923 0.0457404 0.0910195 0.0589333 0.0505843 
0.0268567 0.0593952 0.0466285 0.112161 0.0557617 0.0586602 0.00127269 0.0695061 0.0531362 
0.0161025 0.0644227 0.0606939 0.134303 0.0694297 0.0597477 0.0927396 0.0661671 0.0594963 
0.0852251 0.0764107 0.0569815 0.000582045 0.0647453 0.0639208 0.0428998 0.0807072 0.0617684 
0.0997699 0.088959 0.0673184 0.0131902 0.0576148 0.0673967 0.00582831 0.0622487 0.0725574 
0.0415347 0.0668087 0.069116 0.0557411 0.0664716 0.069728 0.135129 0.0813771 0.0713652 
0.108316 0.0955179 0.0738135 0.0108772 0.0558979 0.0797955 0.0797278 0.0564353 0.082432 
0.086326 0.0689195 0.0896542 0.0245715 0.072028 0.0848565 0.120454 0.0732551 0.0861609 
0.033754 0.0784658 0.0892467 0.0544145 0.0604658 0.0969675 0.0190088 0.0619673 0.0915954 
0.0561334 0.0696833 0.092473 0.123615 0.0730816 0.09617 0.0412593 0.0948162 0.0902697 
0.0699551 0.0689477 0.104165 0.143004 0.0629291 0.102028 0.0183206 0.0549979 0.109268 
0.0286676 0.0551945 0.106801 0.134232 0.0620148 0.107317 0.0199729 0.0709045 0.107338 
0.117778 0.0753801 0.105329 0.064701 0.0597413 0.115395 0.0470198 0.0662149 0.115108 
0.0202201 0.0601157 0.118117 0.0767448 0.0814517 0.117845 0.0434582 0.092563 0.116812 
0.13831 0.060531 0.120599 0.0448107 0.0572829 0.12407 0.07607 0.057387 0.124157 
0.0142492 0.0861154 0.122715 0.099373 0.076666 0.135573 0.127686 0.0882734 0.129279 
0.0431425 0.0629399 0.13662 0.0806615 0.0560406 0.139875 0.142766 0.0571178 0.137762 
0.0658743 0.0731246 0.143851 0.00460246 0.101791 0.139778 0.127822 0.0657464 0.144007 
0.0142874 0.0914753 0.144657 
VERTICES 401 400
OFFSETS vtktypeint64
0 1 2 3 4 5 6 7 8 
9 10 11 12 13 14 15 16 17 
18 19 20 21 22 23 24 25 26 
27 28 29 30 31 32 33 34 35 
36 37 38 39 40 41 42 43 44 
45 46 47 48 49 50 51 52 53 
54 55 56 57 58 59 60 61 62 
63 64 65 66 67 68 69 70 71 
72 73 74 75 76 77 78 79 80 
81 82 83 84 85 86 87 88 89 
90 91 92 93 94 95 96 97 98 
99 100 101 102 103 104 105 106 107 
108 109 110 111 112 113 114 115 116 
117 118 119 120 121 122 123 124 125 
126 127 128 129 130 131 132 133 134 
135 136 137 138 139 140 141 142 143 
144 145 146 147 148 149 150 151 152 
153 154 155 156 157 158 159 160 161 
162 163 164 165 166 167 168 169 170 
171 172 173 174 175 176 177 178 179 
180 181 182 183 184 185 186 187 188 
189 190 191 192 193 194 195 196 197 
198 199 200 201 202 203 204 205 206 
207 208 209 210 211 212 213 214 215 
216 217 218 219 220 221 222 223 224 
225 226 227 228 229 230 231 232 233 
234 235 236 237 238 239 240 241 242 
243 244 245 246 247 248 249 250 251 
252 253 254 255 256 257 258 259 260 
261 262 263 264 265 266 267 268 269 
270 271 272 273 274 275 276 277 278 
279 280 281 282 283 284 285 286 287 
288 289 290 291 292 293 294 295 296 
297 298 299 300 301 302 303 304 305 
306 307 308 309 310 311 312 313 314 
315 316 317 318 319 320 321 322 323 
324 325 326 327 328 329 330 331 332 
333 334 335 336 337 338 339 340 341 
342 343 344 345 346 347 348 349 350 
351 352 353 354 355 356 357 358 359 
360 361 362 363 364 365 366 367 368 
369 370 371 372 373 374 375 376 377 
378 379 380 381 382 383 384 385 386 
387 388 389 390 391 392 393 394 395 
396 397 398 399 400 
CONNECTIVITY vtktypeint64
0 1 2 3 4 5 6 7 8 
9 10 11 12 13 14 15 16 17 
18 19 20 21 22 23 24 25 26 
27 28 29 30 31 32 33 34 35 
36 37 38 39 40 41 42 43 44 
45 46 47 48 49 50 51 52 53 
54 55 56 57 58 59 60 61 62 
63 64 65 66 67 68 69 70 71 
72 73 74 75 76 77 78 79 80 
81 82 83 84 85 86 87 88 89 
90 91 92 93 94 95 96 97 98 
99 100 101 102 103 104 105 106 107 
108 109 110 111 112 113 114 115 116 
117 118 119 120 121 122 123 124 125 
126 127 128 129 130 131 132 133 134 
135 136 137 138 139 140 141 142 143 
144 145 146 147 148 149 150 151 152 
153 154 155 156 157 158 159 160 161 
162 163 164 165 166 167 168 169 170 
171 172 173 174 175 176 177 178 179 
180 181 182 183 184 185 186 187 188 
189 190 191 192 193 194 195 196 197 
198 199 200 201 202 203 204 205 206 
207 208 209 210 211 212 213 214 215 
216 217 218 219 220 221 222 223 224 
225 226 227 228 229 230 231 232 233 
234 235 236 237 238 239 240 241 242 
243 244 245 246 247 248 249 250 251 
252 253 254 255 256 257 258 259 260 
261 262 263 264 265 266 267 268 269 
270 271 272 273 274 275 276 277 278 
279 280 281 282 283 284 285 286 287 
288 289 290 291 292 293 294 295 296 
297 298 299 300 301 302 303 304 305 
306 307 308 309 310 311 312 313 314 
315 316 317 318 319 320 321 322 323 
324 325 326 327 328 329 330 331 332 
333 334 335 336 337 338 339 340 341 
342 343 344 345 346 347 348 349 350 
351 352 353 354 355 356 357 358 359 
360 361 362 363 364 365 366 367 368 
369 370 371 372 373 374 375 376 377 
378 379 380 381 382 383 384 385 386 
387 388 389 390 391 392 393 394 395 
396 397 398 399 
POINT_DATA 400
FIELD FieldData 8
id 1 400 int
2648 3884 3937 3801 2755 3744 3959 3023 3970 
3994 3781 3745 3726 3823 3785 3773 3917 2739 
3907 3586 2901 3894 3931 3960 3987 3024 3903 
3296 3757 3873 3844 3981 3685 3180 3814 3830 
3852 3025 3403 3766 3297 3802 3242 3734 3727 
3793 2823 3359 3858 3824 3686 3976 2961 3711 
3740 2756 3774 3716 3949 3026 3877 3243 3932 
3767 3404 3758 3853 3786 2824 3687 3908 3181 
2825 3405 2962 3878 3759 3809 3835 3360 3135 
3918 3895 3919 3787 3938 3808 3961 3996 3133 
3815 3885 3845 3939 3975 3995 3134 2902 3746 
3182 3909 3720 3263 3971 3940 3519 3688 3896 
3631 3782 2963 3879 3920 3831 3775 3747 3846 
3810 3962 3925 3988 3244 3950 3825 3803 3768 
3406 3854 3788 3926 3982 3816 3836 3760 3863 
3794 3955 3587 3461 3298 3910 3721 3783 3989 
3728 3847 3941 3735 2826 3136 3769 3027 3859 
3761 3951 3795 3864 3911 3299 2757 3754 3245 
3407 2964 3904 3874 3765 3776 3837 3898 3736 
3588 3183 3865 3880 3817 3886 3804 2509 3748 
2649 3963 3933 3866 3855 3997 3887 3956 3984 
3921 3897 3690 3983 3954 3722 3689 3848 3729 
3875 3632 3977 3818 3161 3876 3849 3942 3905 
3952 3838 3899 2927 3717 3927 3789 3811 3972 
3934 3762 3900 3741 3867 3943 3964 3978 3888 
3860 3440 3730 3749 3922 3965 3665 3944 3208 
2989 3796 3957 3770 2867 3839 3819 3737 3856 
2748 3812 3889 3985 3755 3868 3784 3945 3691 
3712 2481 2591 3777 3869 3731 3881 3162 3826 
3840 3666 3805 3441 3386 3832 3262 3999 2749 
3763 3385 3915 3891 3841 3827 3850 3813 3929 
3778 2482 3797 3518 3928 2483 3842 2751 2750 
3613 3713 3923 3946 3990 3806 3914 3890 3913 
3324 3973 3882 3912 3738 3901 3614 3966 3714 
3779 3870 3163 3851 3991 3771 3764 2790 3790 
3723 3820 3084 3750 3667 3692 3442 3828 3742 
3718 2690 3791 3892 3732 3986 3861 3833 3947 
3974 3979 3998 3924 3668 2928 3751 3715 3953 
3930 3756 3739 3807 3958 3916 3719 3902 3834 
3906 3780 3980 4000 3862 3821 3520 3325 3871 
3798 2484 3752 3209 3843 2868 3829 3743 3799 
3443 3872 3857 3993 3992 2752 3822 3326 3792 
2550 3772 3969 3968 3800 3883 3967 3753 3521 
3733 2753 3725 3694 3936 3724 3893 3948 3444 
3935 2754 3693 2990 
type 1 400 int
2 2 2 2 2 2 2 2 2 
2 2 2 2 2 2 2 2 2 
2 2 2 2 2 2 2 2 2 
2 2 2 2 2 2 2 2 2 
2 2 2 2 2 2 2 2 2 
2 2 2 2 2 2 2 2 2 
2 2 2 2 2 2 2 2 2 
2 2 2 2 2 2 2 2 2 
2 2 2 2 2 2 2 2 2 
2 2 2 2 2 2 2 2 2 
2 2 2 2 2 2 2 2 2 
2 2 2 2 2 2 2 2 2 
2 2 2 2 2 2 2 2 2 
2 2 2 2 2 2 2 2 2 
2 2 2 2 2 2 2 2 2 
2 2 2 2 2 2 2 2 2 
2 2 2 2 2 2 2 2 2 
2 2 2 2 2 2 2 2 2 
2 2 2 2 2 2 2 2 2 
2 2 2 2 2 2 2 2 2 
2 2 2 2 2 2 2 2 2 
2 2 2 2 2 2 2 2 2 
2 2 2 2 2 2 2 2 2 
2 2 2 2 2 2 2 2 2 
2 2 2 2 2 2 2 2 2 
2 2 2 2 2 2 2 2 2 
2 2 2 2 2 2 2 2 2 
2 2 2 2 2 2 2 2 2 
2 2 2 2 2 2 2 2 2 
2 2 2 2 2 2 2 2 2 
2 2 2 2 2 2 2 2 2 
2 2 2 2 2 2 2 2 2 
2 2 2 2 2 2 2 2 2 
2 2 2 2 2 2 2 2 2 
2 2 2 2 2 2 2 2 2 
2 2 2 2 2 2 2 2 2 
2 2 2 2 2 2 2 2 2 
2 2 2 2 2 2 2 2 2 
2 2 2 2 2 2 2 2 2 
2 2 2 2 2 2 2 2 2 
2 2 2 2 2 2 2 2 2 
2 2 2 2 2 2 2 2 2 
2 2 2 2 2 2 2 2 2 
2 2 2 2 2 2 2 2 2 
2 2 2 2 
i 3 400 int
0 0 0 0 0 0 0 0 0 
0 0 0 0 0 0 0 0 0 
0 0 0 0 0 0 0 0 0 
0 0 0 0 0 0 0 0 0 
0 0 0 0 0 0 0 0 0 
0 0 0 0 0 0 0 0 0 
0 0 0 0 0 0 0 0 0 
0 0 0 0 0 0 0 0 0 
0 0 0 0 0 0 0 0 0 
0 0 0 0 0 0 0 0 0 
0 0 0 0 0 0 0 0 0 
0 0 0 0 0 0 0 0 0 
0 0 0 0 0 0 0 0 0 
0 0 0 0 0 0 0 0 0 
0 0 0 0 0 0 0 0 0 
0 0 0 0 0 0 0 0 0 
0 0 0 0 0 0 0 0 0 
0 0 0 0 0 0 0 0 0 
0 0 0 0 0 0 0 0 0 
0 0 0 0 0 0 0 0 0 
0 0 0 0 0 0 0 0 0 
0 0 0 0 0 0 0 0 0 
0 0 0 0 0 0 0 0 0 
0 0 0 0 0 0 0 0 0 
0 0 0 0 0 0 0 0 0 
0 0 0 0 0 0 0 0 0 
0 0 0 0 0 0 0 0 0 
0 0 0 0 0 0 0 0 0 
0 0 0 0 0 0 0 0 0 
0 0 0 0 0 0 0 0 0 
0 0 0 0 0 0 0 0 0 
0 0 0 0 0 0 0 0 0 
0 0 0 0 0 0 0 0 0 
0 0 0 0 0 0 0 0 0 
0 0 0 0 0 0 0 0 0 
0 0 0 0 0 0 0 0 0 
0 0 0 0 0 0 0 0 0 
0 0 0 0 0 0 0 0 0 
0 0 0 0 0 0 0 0 0 
0 0 0 0 0 0 0 0 0 
0 0 0 0 0 0 0 0 0 
0 0 0 0 0 0 0 0 0 
0 0 0 0 0 0 0 0 0 
0 0 0 0 0 0 0 0 0 
0 0 0 0 0 0 0 0 0 
0 0 0 0 0 0 0 0 0 
0 0 0 0 0 0 0 0 0 
0 0 0 0 0 0 0 0 0 
0 0 0 0 0 0 0 0 0 
0 0 0 0 0 0 0 0 0 
0 0 0 0 0 0 0 0 0 
0 0 0 0 0 0 0 0 0 
0 0 0 0 0 0 0 0 0 
0 0 0 0 0 0 0 0 0 
0 0 0 0 0 0 0 0 0 
0 0 0 0 0 0 0 0 0 
0 0 0 0 0 0 0 0 0 
0 0 0 0 0 0 0 0 0 
0 0 0 0 0 0 0 0 0 
0 0 0 0 0 0 0 0 0 
0 0 0 0 0 0 0 0 0 
0 0 0 0 0 0 0 0 0 
0 0 0 0 0 0 0 0 0 
0 0 0 0 0 0 0 0 0 
0 0 0 0 0 0 0 0 0 
0 0 0 0 0 0 0 0 0 
0 0 0 0 0 0 0 0 0 
0 0 0 0 0 0 0 0 0 
0 0 0 0 0 0 0 0 0 
0 0 0 0 0 0 0 0 0 
0 0 0 0 0 0 0 0 0 
0 0 0 0 0 0 0 0 0 
0 0 0 0 0 0 0 0 0 
0 0 0 0 0 0 0 0 0 
0 0 0 0 0 0 0 0 0 
0 0 0 0 0 0 0 0 0 
0 0 0 0 0 0 0 0 0 
0 0 0 0 0 0 0 0 0 
0 0 0 0 0 0 0 0 0 
0 0 0 0 0 0 0 0 0 
0 0 0 0 0 0 0 0 0 
0 0 0 0 0 0 0 0 0 
0 0 0 0 0 0 0 0 0 
0 0 0 0 0 0 0 0 0 
0 0 0 0 0 0 0 0 0 
0 0 0 0 0 0 0 0 0 
0 0 0 0 0 0 0 0 0 
0 0 0 0 0 0 0 0 0 
0 0 0 0 0 0 0 0 0 
0 0 0 0 0 0 0 0 0 
0 0 0 0 0 0 0 0 0 
0 0 0 0 0 0 0 0 0 
0 0 0 0 0 0 0 0 0 
0 0 0 0 0 0 0 0 0 
0 0 0 0 0 0 0 0 0 
0 0 0 0 0 0 0 0 0 
0 0 0 0 0 0 0 0 0 
0 0 0 0 0 0 0 0 0 
0 0 0 0 0 0 0 0 0 
0 0 0 0 0 0 0 0 0 
0 0 0 0 0 0 0 0 0 
0 0 0 0 0 0 0 0 0 
0 0 0 0 0 0 0 0 0 
0 0 0 0 0 0 0 0 0 
0 0 0 0 0 0 0 0 0 
0 0 0 0 0 0 0 0 0 
0 0 0 0 0 0 0 0 0 
0 0 0 0 0 0 0 0 0 
0 0 0 0 0 0 0 0 0 
0 0 0 0 0 0 0 0 0 
0 0 0 0 0 0 0 0 0 
0 0 0 0 0 0 0 0 0 
0 0 0 0 0 0 0 0 0 
0 0 0 0 0 0 0 0 0 
0 0 0 0 0 0 0 0 0 
0 0 0 0 0 0 0 0 0 
0 0 0 0 0 0 0 0 0 
0 0 0 0 0 0 0 0 0 
0 0 0 0 0 0 0 0 0 
0 0 0 0 0 0 0 0 0 
0 0 0 0 0 0 0 0 0 
0 0 0 0 0 0 0 0 0 
0 0 0 0 0 0 0 0 0 
0 0 0 0 0 0 0 0 0 
0 0 0 0 0 0 0 0 0 
0 0 0 0 0 0 0 0 0 
0 0 0 0 0 0 0 0 0 
0 0 0 0 0 0 0 0 0 
0 0 0 0 0 0 0 0 0 
0 0 0 0 0 0 0 0 0 
0 0 0 0 0 0 0 0 0 
0 0 0 0 0 0 0 0 0 
0 0 0 0 0 0 0 0 0 
0 0 0 
v 3 400 double
-0.015965750331 0.13074810193 -0.0022680401603 0.0037691867814 0.33078605401 -0.0136301897 0.0005860464001 0.23888143231 0.048742243984 
-0.013330666356 0.074347938562 0.034713071404 -0.0021441907264 0.059400121159 0.046438722938 -0.081607402586 -0.087286024405 0.04288020707 
-0.00070375761123 0.18448344289 0.088206290169 -0.060186510457 -0.096877005556 0.090358642599 0.28784689457 -0.65243370382 -0.001461396721 
0.058491060856 -0.5089740009 0.030202727789 0.075373447169 -0.0060452228312 -0.070086685119 -0.066919938381 0.03308312074 -0.11199840965 
0.088754276994 0.22662720955 0.01755179333 0.23079818756 -0.03165334086 -0.1030368356 -0.27071735458 -0.19683753819 -0.023520714447 
0.26990347913 -0.12513500577 -0.29153470172 -0.013734895208 -0.48692684303 0.10265739592 0.029176625849 0.063557020002 0.011175723517 
0 0.410001241 0 -0.34003113381 -0.060688233229 0.0035415894014 0.090651521546 -0.28430804365 -0.040456652036 
-0.0043803486188 -0.27583160849 -0.43732357503 -0.2412365279 -0.16073372317 -0.11427541723 -0.27164938858 -0.48596043297 0.28349605921 
-0.0083415219662 -0.98471296677 0.12867894074 0.065602443615 0.091221318228 -0.052544180198 0.093677660614 0.21278832421 0.02460691581 
0.040635351565 -0.12189143475 0.017576567953 0.0340779321 0.0002319135752 0.0029551833854 0.12470692325 -0.015694101669 0.17570694889 
0.31208578683 -0.4367738468 0.27824734041 0.00017700445032 -1.0107416072 -0.012519541024 0.12933529232 0.042588217061 0.051919416551 
-0.005644904192 0.11634111591 0.004857108426 0.10565630516 -0.04783649046 0.27747699068 -0.02568388976 0.17898130461 0.043235618101 
0.059066017758 -0.21799998636 0.10430757491 0.064589212998 -0.056803386309 -0.095420423741 -0.0096575554909 0.27005267014 0.0080604148417 
0.099974090402 0.01044452285 0.084876551395 0.028135713549 -0.096028905037 0.39390411585 -0.040956546694 0.26237529859 -0.077021290032 
0.073421974865 0.032193320907 0.26764079307 0 0.39896583638 0 -0.014901053929 -0.088385435829 0.28332991228 
0.087677839082 0.25213227295 0.15366330954 0.048239276178 0.099225294711 0.24497616456 -0.097613623005 0.14261836488 -0.069878233524 
0.15181603203 0.21621407064 -0.22287704021 0 0.4099646538 0 0.14905294577 0.19639092514 0.014893614453 
-0.00029414138551 -1.0100510944 0.0058730871698 -0.075229917136 -0.010131171579 -0.039605013594 -0.23522534549 0.015511879386 -0.20546539832 
-0.013439671783 0.51232874696 -0.080587636658 0 0.39895779965 -0.0048950405667 0.1287683514 0.19121853907 0.11076579337 
-0.21182349314 0.046633813357 -0.020952048906 0 -1 0 -1.4485258125e-05 0.39873630553 -3.634419112e-05 
-0.13933317506 -0.23979898379 0.16698240609 0.0073616794846 0.22860097262 0.0056379145434 0.27123173275 -0.4815342286 0.23692752894 
-0.004507024569 0.40045571211 -0.019038581245 0.013750131286 0.41310435568 -0.010249234026 0.21273066105 0.083784470045 0.0040210919325 
0.16177005642 -0.07644656374 -0.00059768219633 0.16516498594 -0.03766484776 0.11888971262 -0.21192915926 -0.071779856971 0.31197155673 
0 0.39374558319 -0.0047274651976 -0.21558529215 -0.019513045433 -0.17941226195 -0.0006249839803 0.39654364795 -0.0035443033661 
0 0.41049660782 0 0.32876983248 -0.031845621495 -0.32283421205 0.25500455134 -0.1417376939 -0.16062557434 
0 0.39904491296 0 0 0.40508628054 1.1391752074e-05 0.10261538139 0.024450565892 0.019208162786 
-0.044237452005 0.0062643316779 0.3233502501 0.028636836633 -0.062673917763 -0.0038113639799 0.038236512012 0.25899697375 0.011410316784 
0.013975728115 0.33650953642 0.019356478021 0 0.38773520475 0 0.046227379046 -0.25837589022 -0.14932544018 
-0.062514802002 0.021990781254 -0.11975482435 0.0031511260716 0.38779519239 -0.038195747174 -0.1183292282 -0.030003316637 -0.19789158093 
0.23335665952 -0.77409635784 -0.15643761429 -0.021180887122 -0.87695292382 -0.065262142925 -0.0030995011966 0.4005287818 -0.0015598553611 
-0.14770044765 0.17433285824 -0.010388830832 0.066613117548 -0.076627771921 -0.050972774973 -0.018713004647 0.38875185117 7.8913229596e-15 
0.068126517152 -0.27786718892 -0.019095590668 0.0003178502612 -1.0164391779 0.0014461503232 -0.10947261911 -0.67829061342 -0.2852250113 
0.0017389604782 0.39882328398 -0.0017389604782 -0.039332685411 0.096955304234 0.033351957532 0.0046293854137 0.047545487594 0.0011750959821 
-0.019797675755 -0.015974660326 -0.0061976780593 -0.0014556396497 0.083060012092 0.062429880765 -0.10816444988 -0.44126139526 -0.20902328646 
-0.0053444608278 0.09390465394 -0.0053444608277 -0.041186263096 0.23898302201 -0.12662046701 0.2700361566 -0.22673193438 0.088027628827 
-0.026301618679 0.19420349068 -0.026301618679 0.045624972478 0.21700581583 0.013787575654 -0.022386265164 0.22857903466 -0.14220263536 
-0.15066381234 0.017196765551 0.10389332128 -0.0046612500061 0.15225695167 -0.13291573575 0.16447094469 -0.17118126386 -0.0015761164629 
-0.020239216445 0.14448362973 -0.086741887639 -0.34050679591 0.16933284912 -0.10032961827 0.051891748284 -0.082312162367 -0.092980730788 
-0.02557819765 -0.39630263102 0.19799694237 0.088833910935 -0.15208735125 0.12361314911 0.12710655058 0.017310071384 0.15393163884 
0.10233813382 -0.057334312558 0.036009067924 0.071433029912 -0.52263062634 -0.11112769057 -0.01302284917 -0.29434022148 -0.13325556964 
-0.21577316024 -0.49178109651 -0.052032966726 -0.011140416409 0.097767829241 -0.12921837017 -0.040562073389 -0.35263073234 0.0035808446457 
-0.11258369845 0.014443635939 0.051016760376 -0.03389371726 0.051802584064 -0.01733030652 0.04529813777 -0.018487324901 0.13121643403 
0.018153573444 0.14155660873 0.00018539693756 -0.065001341762 0.019554148352 0.081816480773 0.27514513393 -0.2381335611 0.31278527209 
0.22554344398 -0.097415812676 0.18170974653 0.064635941461 -0.59425115093 -0.27402441149 0.14839527413 0.58811835358 0.043079860813 
-0.028761176984 0.028319443758 0.0065013005103 -0.055878085168 0.018552676409 0.077319089015 -0.058893667133 -0.16956495208 0.084704517648 
-0.0021049833578 0.38899466784 -0.000126565171 0.040365860109 -0.705998602 -0.068874178412 -0.074711751139 -0.0080621039028 0.03428911449 
-0.021848057887 0.035427487958 -0.021584731543 0.011954700993 -0.040705281738 0.17212593104 -0.19919498974 0.03461183434 0.2134277811 
-0.095459922652 -0.097978336242 0.19967599539 -0.0020887119363 0.38986351732 -0.0070491576428 -0.0022357930233 -0.9708917541 -0.002153005058 
0.09325535229 -0.60639467335 0.0048504953267 0.30914526625 -0.076061414229 0.017928294381 0.031131950044 0.032706997154 0.10031977015 
0 0.41007381017 0 -0.0016610994383 0.29654940525 0.0087496036546 -0.00044574958215 0.029243049089 0.10201140501 
0.0020429030869 0.39521847008 -0.0010600737839 -0.0067172086632 0.56567410001 0.037516284279 0.012190777852 0.32929773123 0.012633784709 
-0.032686606129 0.21366618101 -0.030099490058 -0.3079784592 0.20546468663 -0.29548681616 0 0.41052549956 0 
-0.1805049794 0.05781629622 -0.033949824544 0.12619151306 -0.030120305532 -0.12723660908 0 0.39882697079 0 
0 0.39925497113 0 0.16820795446 0.029549338883 0.12446726565 0.00056348824668 0.40152978625 0.00027402949384 
0.0023122065005 0.39628274053 0.0023597342796 0 0.39875819248 -0.0097057056303 0.044804293718 0.32049728826 -0.0062287931832 
0.017520411208 0.26585849524 0.23466470492 -0.076416026534 0.17725342488 -0.024615689046 -0.20190154007 0.19481537035 0.026359778761 
0.067490180065 0.26525617797 0.16187870525 0.0002814165965 0.39586236908 -0.0042450652735 0 0.39872827304 0 
0 0.38755395842 -0.0050852537353 -8.0938774001e-06 0.39894161244 0 -0.00036883905222 0.40129851273 -0.0077537456699 
-0.0028093883689 0.38986854671 0.0010682915147 0 0.38761842277 0 0.0012503121485 0.38702661056 -0.005926866043 
0 0.41016565709 9.1963837408e-06 -0.0033082998542 0.13377592098 -0.0033247496929 0.0002436659938 0.41148920957 0.0063921664547 
-0.0046666478446 0.28784143851 -0.0046798590522 0 -0.98319741155 0.0135385174 0 0.3987994427 6.9043932791e-06 
0.0024336544151 0.40286253151 0.0042270621109 -0.002634341908 0.41110012695 0.0010203462189 0.0014610539288 -0.96504033019 -0.0073217767032 
0.00051441565056 0.39864167423 0.0017178022421 0.00043407114166 -1.0152295393 -0.01351538144 0.0017521974428 -1.0007942276 0.004261372227 
0.020188320678 0.34687093157 -0.00040929342903 0.086053560792 0.32893311383 -0.0017445639745 0.003430585782 0.26858144658 0.036345321829 
0.36977578319 -0.64772503422 -0.25858240166 0.099347670376 -0.83234251585 -0.005790205922 -0.23465860515 0.31091122182 0.049620763329 
-0.024300398877 0.081944597612 -0.00071318226559 0.2471524416 -0.12052164281 0.0057565146692 -0.30057167303 -0.0057001018753 -0.016076409613 
-0.17588161393 -0.033113448321 -0.024566294682 -0.099007385536 0.082080622725 -0.049446953515 0.0050909747433 -0.80797522158 -0.033712280558 
-0.0027771789315 0.15008403462 -0.0014971267804 -0.05216171867 -0.0233763571 -0.029177949862 0.046560462567 0.21263860104 0.0028050972424 
0.041891038185 -0.047018304722 0.024090408162 -0.007583588806 -0.91753982802 0.033764453348 0.27568943969 0.36520119054 0.0011415550259 