# vtk DataFile Version 5.1
Generated by LIGGGHTS
ASCII
DATASET POLYDATA
POINTS 400 float
-0.141887 0.0569985 -0.144358 -0.11668 0.0567469 -0.145053 -0.065431 0.0558578 -0.144807 
-0.0233081 0.0590476 -0.143621 -0.0861305 0.0552806 -0.144993 -0.0680126 0.0679097 -0.143053 
-0.0508708 0.065308 -0.143409 -0.00362652 0.0645599 -0.142824 -0.144689 0.0698266 -0.145001 
-0.129141 0.0705625 -0.144432 -0.0984721 0.0715393 -0.143623 -0.143667 0.0626593 -0.136236 
-0.119908 0.0625755 -0.137447 -0.109966 0.0647478 -0.141997 -0.0618907 0.0613478 -0.136054 
-0.037262 0.0653942 -0.137666 -0.111203 0.0756621 -0.141065 -0.0516568 0.0711231 -0.134196 
-0.023318 0.0728485 -0.14042 -0.133952 0.0550247 -0.132933 -0.101305 0.0571873 -0.133984 
-0.0842215 0.0555543 -0.128176 -0.0499713 0.0573494 -0.131977 -0.127336 0.0723334 -0.131567 
-0.144266 0.0565961 -0.124188 -0.128009 0.0576671 -0.119461 -0.057962 0.0608693 -0.124939 
-0.040639 0.0568081 -0.123902 -0.0311155 0.0548469 -0.11911 -0.105585 0.0580347 -0.117398 
-0.018265 0.0558302 -0.11339 -0.0798707 0.0700565 -0.112674 -0.0358662 0.0657643 -0.11695 
-0.0971931 0.0572139 -0.111196 -0.0574507 0.0612561 -0.10774 -0.025764 0.0580426 -0.10693 
-0.0106966 0.0633576 -0.111182 -0.0805994 0.0998884 -0.112078 -0.105398 0.0594196 -0.098086 
-0.00521921 0.0596633 -0.0971089 -0.0581052 0.0735281 -0.101937 -0.0376925 0.0946381 -0.103091 
-0.0256942 0.0619789 -0.0967844 -0.0818061 0.0672009 -0.092774 -0.0427048 0.0704455 -0.094019 
-0.00299489 0.0849316 -0.0908342 -0.108309 0.0558925 -0.0879951 -0.0689679 0.0629004 -0.087003 
-0.14326 0.0646156 -0.082107 -0.041945 0.0695189 -0.0830506 -0.0294288 0.0717052 -0.088771 
-0.0862438 0.0843795 -0.0889079 -0.137112 0.0881065 -0.086611 -0.051051 0.112754 -0.0826382 
-0.107148 0.0567632 -0.0760666 -0.114759 0.0683232 -0.0757299 -0.00354776 0.0621163 -0.0812392 
-0.103829 0.118817 -0.0806514 -0.0848825 0.0655658 -0.0727564 -0.0508262 0.0691066 -0.0671158 
-0.115325 0.109091 -0.0710418 -0.117664 0.0739251 -0.0623422 -0.0625371 0.089553 -0.0674635 
-0.0231167 0.106452 -0.0607397 -0.083009 0.0569804 -0.0547939 -0.0119792 0.0574044 -0.0567527 
-0.0510302 0.0884596 -0.0562247 -0.113173 0.0577992 -0.046088 -0.0552519 0.0588948 -0.0515484 
-0.134725 0.0619838 -0.0466396 -0.0968991 0.0693676 -0.047177 -0.0825843 0.0984794 -0.0480742 
-0.0121532 0.106527 -0.0522882 -0.0529626 0.114563 -0.0495144 -0.0140897 0.0598309 -0.0441819 
-0.0654719 0.0719605 -0.0393998 -0.104349 0.0740511 -0.0326997 -0.0603677 0.077916 -0.0325443 
-0.127583 0.0913994 -0.0307984 -0.0597848 0.0584477 -0.0269722 -0.0758095 0.0645943 -0.0303621 
-0.0987692 0.0616157 -0.020822 -0.0779707 0.0559389 -0.0236632 -0.0308257 0.0607085 -0.0134771 
-0.0833835 0.0651816 -0.019409 -0.0488331 0.0708595 -0.019761 -0.0707087 0.0703517 -0.0238458 
-0.0802914 0.0553084 -0.00804627 -0.0726488 0.0591284 -0.0152696 -0.0582453 0.0561447 -0.0143987 
-0.0165714 0.108367 -0.0110815 -0.0985647 0.0554668 -0.00155659 -0.066969 0.0584584 -0.00291736 
-0.118636 0.0640039 -0.00489436 -0.0869672 0.0634805 -0.00801775 -0.0677062 0.0687264 -0.00835043 
-0.0413291 0.077505 -0.00115547 -0.0259696 0.10815 -0.00275041 -0.00119011 0.0551773 -0.124167 
-0.133498 0.0553829 0.000176851 -0.114324 0.0580721 0.00747925 -0.105457 0.060799 0.00364236 
-0.0880768 0.0549918 0.00160686 -0.0748614 0.055452 0.00284059 -0.0490435 0.0607063 0.00609198 
-0.0952427 0.0688162 0.0029907 -0.0809799 0.0678211 0.00140727 -0.000629241 0.0668575 0.00539547 
-0.145008 0.0692648 0.00433855 -0.0557113 0.0681651 0.00755415 -0.0204211 0.0838752 0.00410703 
-0.00354596 0.0893447 0.00247875 -0.145019 0.0593014 0.0127386 -0.0986419 0.0612301 0.0114337 
-0.0899997 0.0550095 0.0114459 -0.0694634 0.0602702 0.011943 -0.0165787 0.0558459 0.0149547 
-0.00862591 0.0602442 0.010478 -0.1376 0.0654181 0.0101128 -0.128071 0.0686389 0.00713764 
-0.0863261 0.0643662 0.0122991 -0.0461884 0.0678276 0.0163654 -0.113097 0.0708822 0.00827626 
-0.130361 0.0569913 0.0173965 -0.116885 0.0567013 0.0171769 -0.0796668 0.0558206 0.0165979 
-0.0574715 0.0595866 0.0166194 -0.048821 0.0598506 0.0222851 -0.027353 0.0591201 0.016101 
-0.136145 0.0638546 0.0225053 -0.143369 0.055456 0.0262472 -0.0955196 0.0551109 0.0275451 
-0.0648433 0.0588316 0.0280472 -0.119143 0.0643602 0.0248533 -0.0192645 0.069029 0.0258603 
-0.0865473 0.0842621 0.0242894 -0.0576871 0.110291 0.024029 -0.114315 0.0561346 0.0316743 
-0.0536282 0.0553598 0.0333654 -0.0426125 0.0588495 0.0367395 -0.00824425 0.059635 0.0374433 
-0.144294 0.0625181 0.0334851 -0.102274 0.085742 0.0360083 -0.124127 0.0613154 0.0438645 
-0.0242353 0.0586355 0.0441603 -0.142625 0.0671425 0.0443417 -0.0679143 0.0657146 0.043568 
-0.0660782 0.0970087 0.0377727 -0.0483023 0.0572182 0.052942 -0.0800657 0.0699327 0.044894 
-0.127533 0.0796342 0.046653 -0.0995731 0.0891336 0.049612 -0.0894915 0.0973393 0.0452455 
-0.0904188 0.14573 0.0504775 -0.0666631 0.0621851 0.0580978 -0.113881 0.0725274 0.0558971 
-0.0401407 0.0875712 0.0590509 -0.110323 0.0570629 0.0626884 -0.0886199 0.0607405 0.0602329 
-0.106768 0.104641 0.062131 -0.0515694 0.113351 0.0621647 -0.0800918 0.0591409 0.0751161 
-0.129881 0.102689 0.0740446 -0.139741 0.106612 0.0708311 -0.0517667 0.109568 0.0727608 
-0.0942501 0.0672489 0.0788276 -0.00805427 0.0665739 0.078729 -0.120488 0.0774021 0.0820256 
-0.0610243 0.0675382 0.0863567 -0.0419408 0.0717535 0.0879779 -0.141346 0.0945318 0.0840536 
-0.0260893 0.0992412 0.0827758 -0.120296 0.106946 0.0836254 -0.0793011 0.0706519 0.095118 
-0.111645 0.0771864 0.0915689 -0.0660745 0.0734377 0.0942338 -0.0169162 0.0808299 0.0973861 
-0.12118 0.0714424 0.100589 -0.0288705 0.0760128 0.101262 -0.140335 0.0872711 0.104455 
-0.0811881 0.0954328 0.0999412 -0.0292299 0.110155 0.100904 -0.0572407 0.0575923 0.111266 
-0.109689 0.0689768 0.113555 -0.0612323 0.0703644 0.113175 -0.0420687 0.0776726 0.114319 
-0.0289871 0.0799684 0.112744 -0.0646623 0.0632861 0.122117 -0.0502142 0.0620077 0.123332 
-0.01064 0.0560414 0.119143 -0.132084 0.0735579 0.121059 -0.125365 0.0667298 0.13056 
-0.112162 0.0702869 0.130293 -0.0484288 0.0855337 0.134937 -0.0351399 0.0553293 0.132823 
-0.0636755 0.105869 0.142945 -0.0750849 0.0586222 0.143556 -0.0474858 0.0550928 0.144497 
-0.0975799 0.0685203 0.142747 -0.0681884 0.0668415 0.14317 -0.0338123 0.0614607 0.143962 
-0.0555562 0.0827857 0.142702 7.30749e-05 0.0554268 -0.142841 0.0141254 0.0551961 -0.142905 
0.030637 0.0569897 -0.142207 0.0407782 0.0591813 -0.143971 0.105807 0.0637995 -0.143936 
0.140252 0.0627269 -0.144468 0.0127119 0.0652309 -0.144391 0.0234204 0.063303 -0.145002 
0.0197827 0.0744466 -0.143943 0.0472048 0.0745092 -0.142938 0.14226 0.0742582 -0.144561 
0.0186729 0.0609844 -0.134961 0.0569403 0.0571597 -0.141737 0.0711366 0.0562154 -0.136044 
0.0333154 0.0668498 -0.137818 0.125969 0.0615705 -0.143716 0.0339986 0.0610789 -0.129003 
0.0427091 0.0586171 -0.134076 0.129907 0.0554374 -0.133445 0.141665 0.0567414 -0.127859 
0.0503299 0.0637011 -0.128021 0.113523 0.0633759 -0.133688 0.0704522 0.0739004 -0.00298576 
0.119664 0.0638499 -0.12282 0.0118478 0.0658693 -0.120879 0.026801 0.0669798 -0.120456 
0.0783185 0.0642509 -0.122742 0.000834861 0.0702891 -0.122531 0.0170085 0.0720312 -0.126854 
0.0266498 0.055688 -0.117363 0.0639205 0.0574725 -0.119798 0.0939193 0.0606827 -0.116075 
0.101042 0.0685226 -0.119536 0.0290792 0.0801231 -0.113507 0.0466128 0.0558329 -0.109917 
0.0198607 0.0684028 -0.108971 0.0283136 0.0622737 -0.109562 0.0386393 0.0683645 -0.110319 
0.118099 0.0800368 -0.105139 0.00995718 0.0586169 -0.101204 0.0266787 0.0563319 -0.101594 
0.0508047 0.0552484 -0.100896 0.0988532 0.0554215 -0.100546 0.0338625 0.0647654 -0.0962854 
0.0575225 0.0672585 -0.100938 0.0827781 0.0872264 -0.10028 0.0605787 0.0575144 -0.0955121 
0.0772153 0.0565479 -0.0964594 0.10702 0.0598828 -0.0907382 0.0481766 0.0676288 -0.0966346 
0.101895 0.0694615 -0.092472 0.0164589 0.0783623 -0.0941424 0.136257 0.0751987 -0.0935904 
0.0126694 0.0595918 -0.0823693 0.051726 0.0594409 -0.0880764 0.080251 0.0799921 -0.0862552 
0.0335924 0.0811933 -0.0884966 0.0894837 0.0870161 -0.0870094 0.0429248 0.0564794 -0.0757321 
0.0688157 0.0564882 -0.0789935 0.0593955 0.0620384 -0.080682 0.0937443 0.0661074 -0.0808137 
0.025526 0.0583349 -0.0700745 0.0791642 0.0797048 -0.0727874 0.105314 0.0730915 -0.0700532 
0.0626956 0.0817521 -0.0706957 0.0230057 0.0597368 -0.0598392 0.0383404 0.0570827 -0.063586 
0.000388778 0.0591697 -0.0559402 0.047364 0.0560299 -0.050834 0.013285 0.0642255 -0.0516608 
0.0295805 0.0657712 -0.0530865 0.0853605 0.0781435 -0.0564998 0.0658769 0.0865989 -0.0532826 
0.116199 0.0816069 -0.0556878 0.14183 0.0569331 -0.044767 0.0389746 0.0689631 -0.0469608 
0.0571282 0.06405 -0.0484482 0.0548296 0.0805548 -0.0498279 0.127946 0.0599724 -0.0414317 
0.00444427 0.062228 -0.0441498 0.0682018 0.0696058 -0.0405516 0.0841556 0.0785002 -0.039639 
0.0150048 0.0937853 -0.0423002 0.0523471 0.102779 -0.0375194 0.135551 0.0602293 -0.0336813 
0.0511641 0.0684337 -0.0338391 0.0592668 0.0636884 -0.0381726 0.132005 0.0695948 -0.0367906 
0.0374383 0.0985421 -0.0333762 0.0190595 0.0590977 -0.0269865 0.108137 0.0775663 -0.0251843 
0.143783 0.0592514 -0.0172643 0.142748 0.071102 -0.0153279 0.0412946 0.0598896 -0.0135733 
0.055815 0.0624724 -0.0137119 0.0976282 0.0612382 -0.0146994 0.125907 0.0551313 -0.00578953 
0.0203515 0.0697952 -0.0108672 0.088552 0.0743337 -0.0091895 0.0826128 0.0632899 -0.000390049 
0.106346 0.0656342 -0.00296443 0.144108 0.0683926 -0.00391297 0.0143218 0.075656 -0.000856331 
0.113631 0.0875406 -0.000867505 0.0457374 0.055201 0.00117617 0.0592135 0.0550484 0.00484905 
0.0527978 0.0626121 0.0028214 0.0625735 0.0649261 0.00297299 0.114743 0.108691 0.143265 
0.0529788 0.0551443 0.0145208 0.0765232 0.0554911 0.0107462 0.0248498 0.0691433 0.0117544 
0.0954288 0.0665464 0.0129932 0.118665 0.0625296 0.0102962 0.141046 0.062689 0.0129433 
0.0210638 0.0915754 0.00796834 0.0614997 0.0578414 0.0228545 0.0742398 0.0571613 0.0219507 
0.10364 0.0567926 0.0175746 0.100345 0.0877974 0.0195547 0.00363255 0.0602352 0.0294667 
0.0253487 0.0602919 0.0237664 0.0927855 0.0555283 0.0254034 0.113666 0.0556979 0.0241578 
0.129846 0.0565621 0.0209712 0.0992038 0.0683168 0.0241662 0.080717 0.0559001 0.0335892 
0.134647 0.0557406 0.0333211 0.093838 0.0642995 0.0362405 0.106861 0.0598461 0.0321661 
0.011645 0.0754573 0.0294719 0.0961525 0.0759696 0.0342251 0.0192696 0.0616966 0.0387353 
0.0389769 0.0614098 0.0397732 0.0674433 0.0552655 0.0458374 0.10883 0.0550492 0.0463159 
0.116656 0.0556711 0.0386344 0.128959 0.0561295 0.0423371 0.144476 0.0584303 0.0400547 
0.0717985 0.0651246 0.0436717 0.105048 0.0868788 0.0437941 0.0315408 0.0899432 0.0388374 
0.0278255 0.0566084 0.0462333 0.0888306 0.0605075 0.0459402 0.115506 0.0656747 0.0486679 
0.0852251 0.0574604 0.0569815 0.133886 0.0566012 0.0584764 0.00989814 0.0649874 0.0581166 
0.00120919 0.0815901 0.0531919 0.0937908 0.0584503 0.0654042 0.110142 0.0629155 0.0661721 
0.0560358 0.0687238 0.0615048 0.000582045 0.0765562 0.0637619 0.135047 0.0782246 0.063527 
0.0423375 0.0889384 0.0607572 0.099748 0.100656 0.0672506 0.00139445 0.0611639 0.0676311 
0.0115386 0.0569599 0.069376 0.0404753 0.0700449 0.0717493 0.135152 0.0934555 0.0713956 
0.108308 0.107606 0.0738185 0.013124 0.0556638 0.0802428 0.0179259 0.0585423 0.0899353 
0.0857309 0.0571944 0.0859321 0.0604857 0.0621657 0.0828998 0.0868103 0.0806665 0.0897581 
0.0244409 0.0802315 0.0893417 0.0364286 0.0824883 0.0885608 0.118745 0.0795361 0.0808787 
0.043015 0.104321 0.0881362 0.14269 0.0650415 0.0942795 0.0543485 0.0581168 0.100896 
0.12506 0.056624 0.100765 0.0700371 0.0805201 0.104238 0.107634 0.0704893 0.104285 
0.0182716 0.0551762 0.111769 0.0282639 0.0583318 0.107699 0.140941 0.0556975 0.106472 
0.0208469 0.0660009 0.112635 0.138315 0.061126 0.116011 0.0384698 0.0636909 0.114823 
0.0656718 0.0658477 0.115366 0.0767134 0.0934841 0.117777 0.0433913 0.10485 0.116813 
0.021853 0.0602357 0.131317 0.0424264 0.0593462 0.123225 0.0730141 0.0594177 0.122716 
0.0142418 0.0978351 0.122699 0.127796 0.10022 0.129157 0.14182 0.0580844 0.137922 
0.0806615 0.0680417 0.139847 0.0431247 0.074987 0.136533 0.108409 0.0723199 0.140136 
0.00445997 0.113702 0.13968 0.126387 0.0693861 0.143016 0.070017 0.0693432 0.142037 
0.0142467 0.102496 0.144966 
VERTICES 401 400
OFFSETS vtktypeint64
0 1 2 3 4 5 6 7 8 
9 10 11 12 13 14 15 16 17 
18 19 20 21 22 23 24 25 26 
27 28 29 30 31 32 33 34 35 
36 37 38 39 40 41 42 43 44 
45 46 47 48 49 50 51 52 53 
54 55 56 57 58 59 60 61 62 
63 64 65 66 67 68 69 70 71 
72 73 74 75 76 77 78 79 80 
81 82 83 84 85 86 87 88 89 
90 91 92 93 94 95 96 97 98 
99 100 101 102 103 104 105 106 107 
108 109 110 111 112 113 114 115 116 
117 118 119 120 121 122 123 124 125 
126 127 128 129 130 131 132 133 134 
135 136 137 138 139 140 141 142 143 
144 145 146 147 148 149 150 151 152 
153 154 155 156 157 158 159 160 161 
162 163 164 165 166 167 168 169 170 
171 172 173 174 175 176 177 178 179 
180 181 182 183 184 185 186 187 188 
189 190 191 192 193 194 195 196 197 
198 199 200 201 202 203 204 205 206 
207 208 209 210 211 212 213 214 215 
216 217 218 219 220 221 222 223 224 
225 226 227 228 229 230 231 232 233 
234 235 236 237 238 239 240 241 242 
243 244 245 246 247 248 249 250 251 
252 253 254 255 256 257 258 259 260 
261 262 263 264 265 266 267 268 269 
270 271 272 273 274 275 276 277 278 
279 280 281 282 283 284 285 286 287 
288 289 290 291 292 293 294 295 296 
297 298 299 300 301 302 303 304 305 
306 307 308 309 310 311 312 313 314 
315 316 317 318 319 320 321 322 323 
324 325 326 327 328 329 330 331 332 
333 334 335 336 337 338 339 340 341 
342 343 344 345 346 347 348 349 350 
351 352 353 354 355 356 357 358 359 
360 361 362 363 364 365 366 367 368 
369 370 371 372 373 374 375 376 377 
378 379 380 381 382 383 384 385 386 
387 388 389 390 391 392 393 394 395 
396 397 398 399 400 
CONNECTIVITY vtktypeint64
0 1 2 3 4 5 6 7 8 
9 10 11 12 13 14 15 16 17 
18 19 20 21 22 23 24 25 26 
27 28 29 30 31 32 33 34 35 
36 37 38 39 40 41 42 43 44 
45 46 47 48 49 50 51 52 53 
54 55 56 57 58 59 60 61 62 
63 64 65 66 67 68 69 70 71 
72 73 74 75 76 77 78 79 80 
81 82 83 84 85 86 87 88 89 
90 91 92 93 94 95 96 97 98 
99 100 101 102 103 104 105 106 107 
108 109 110 111 112 113 114 115 116 
117 118 119 120 121 122 123 124 125 
126 127 128 129 130 131 132 133 134 
135 136 137 138 139 140 141 142 143 
144 145 146 147 148 149 150 151 152 
153 154 155 156 157 158 159 160 161 
162 163 164 165 166 167 168 169 170 
171 172 173 174 175 176 177 178 179 
180 181 182 183 184 185 186 187 188 
189 190 191 192 193 194 195 196 197 
198 199 200 201 202 203 204 205 206 
207 208 209 210 211 212 213 214 215 
216 217 218 219 220 221 222 223 224 
225 226 227 228 229 230 231 232 233 
234 235 236 237 238 239 240 241 242 
243 244 245 246 247 248 249 250 251 
252 253 254 255 256 257 258 259 260 
261 262 263 264 265 266 267 268 269 
270 271 272 273 274 275 276 277 278 
279 280 281 282 283 284 285 286 287 
288 289 290 291 292 293 294 295 296 
297 298 299 300 301 302 303 304 305 
306 307 308 309 310 311 312 313 314 
315 316 317 318 319 320 321 322 323 
324 325 326 327 328 329 330 331 332 
333 334 335 336 337 338 339 340 341 
342 343 344 345 346 347 348 349 350 
351 352 353 354 355 356 357 358 359 
360 361 362 363 364 365 366 367 368 
369 370 371 372 373 374 375 376 377 
378 379 380 381 382 383 384 385 386 
387 388 389 390 391 392 393 394 395 
396 397 398 399 
POINT_DATA 400
FIELD FieldData 8
id 1 400 int
3781 3745 2648 3937 3970 3744 3884 3773 3801 
3823 3994 3894 3785 2755 3931 3726 3023 3917 
3959 2739 3987 3586 2901 3907 3024 3981 3903 
3296 3960 3757 3844 3180 3873 3685 3830 3852 
3025 3403 3814 3766 3802 3734 3858 3359 3242 
3793 3727 3976 3297 3686 3711 3824 2823 2756 
2961 3716 3731 3740 3949 3774 3026 3243 3767 
3404 3932 3877 3908 3758 3405 3853 3786 3687 
3181 2825 2962 2824 3878 3809 3759 3808 3360 
3135 3918 3835 3919 3895 3996 3938 3961 3787 
3133 3885 3975 3815 3939 3995 3845 3134 3943 
3896 2902 3182 3720 3746 3782 3909 3971 3263 
3925 3940 3244 3519 3688 3831 3631 3962 2963 
3879 3982 3920 3988 3846 3950 3825 3803 3775 
3747 3406 3810 3955 3836 3768 3788 3854 3587 
3794 3816 3760 3461 3989 3298 3863 3783 3728 
3847 3721 3910 3735 3136 3951 3941 3769 2826 
3027 3761 3859 3795 3864 3911 3299 2757 3754 
3407 3245 2964 3904 3765 3776 3874 3898 3736 
3588 3183 3837 3865 3880 3817 3886 2509 3804 
3748 2649 3963 3933 3997 3866 3855 3956 3984 
3983 3887 3921 3897 3690 3954 3722 3689 3848 
3729 3875 3977 3632 3972 3899 3818 3161 3942 
3876 3927 3849 3952 3838 3905 3964 3811 3900 
3789 3934 3762 2927 3717 3867 3860 3741 3901 
3965 3730 3922 3440 3749 3978 3888 2989 3957 
3944 3796 3665 3208 3770 2867 3839 3819 3737 
2748 3812 3889 3784 3985 3755 3945 3869 3856 
3712 3691 3868 2481 2591 3826 3840 3666 3881 
3777 3162 3441 3805 3832 3386 3262 3763 3999 
2749 3385 3915 3891 3841 3813 3827 3850 3929 
3778 3797 2483 2482 3928 3842 2750 3518 3946 
3613 3806 2751 3713 3990 3923 3890 3913 3966 
3973 3324 3914 3738 3614 3870 3851 3912 3882 
3771 3714 3779 3991 3723 3163 3790 3764 2790 
3820 3828 3442 3084 3750 3667 3692 3742 3926 
3986 3718 2690 3791 3732 3892 3947 3974 3979 
3953 3998 3924 3668 3861 3833 2928 3751 3715 
3739 3807 3756 3719 3916 3930 4000 3958 3906 
3834 3980 3902 2484 3862 3780 3821 3520 3871 
3325 3798 3752 3209 3843 3857 2868 3993 3829 
3743 3443 3799 2752 3326 3872 3992 3822 3968 
3792 2550 3772 3969 3733 3883 3800 3753 3521 
3967 2753 3725 3694 3724 3444 3948 3893 3936 
2754 3693 3935 2990 
type 1 400 int
2 2 2 2 2 2 2 2 2 
2 2 2 2 2 2 2 2 2 
2 2 2 2 2 2 2 2 2 
2 2 2 2 2 2 2 2 2 
2 2 2 2 2 2 2 2 2 
2 2 2 2 2 2 2 2 2 
2 2 2 2 2 2 2 2 2 
2 2 2 2 2 2 2 2 2 
2 2 2 2 2 2 2 2 2 
2 2 2 2 2 2 2 2 2 
2 2 2 2 2 2 2 2 2 
2 2 2 2 2 2 2 2 2 
2 2 2 2 2 2 2 2 2 
2 2 2 2 2 2 2 2 2 
2 2 2 2 2 2 2 2 2 
2 2 2 2 2 2 2 2 2 
2 2 2 2 2 2 2 2 2 
2 2 2 2 2 2 2 2 2 
2 2 2 2 2 2 2 2 2 
2 2 2 2 2 2 2 2 2 
2 2 2 2 2 2 2 2 2 
2 2 2 2 2 2 2 2 2 
2 2 2 2 2 2 2 2 2 
2 2 2 2 2 2 2 2 2 
2 2 2 2 2 2 2 2 2 
2 2 2 2 2 2 2 2 2 
2 2 2 2 2 2 2 2 2 
2 2 2 2 2 2 2 2 2 
2 2 2 2 2 2 2 2 2 
2 2 2 2 2 2 2 2 2 
2 2 2 2 2 2 2 2 2 
2 2 2 2 2 2 2 2 2 
2 2 2 2 2 2 2 2 2 
2 2 2 2 2 2 2 2 2 
2 2 2 2 2 2 2 2 2 
2 2 2 2 2 2 2 2 2 
2 2 2 2 2 2 2 2 2 
2 2 2 2 2 2 2 2 2 
2 2 2 2 2 2 2 2 2 
2 2 2 2 2 2 2 2 2 
2 2 2 2 2 2 2 2 2 
2 2 2 2 2 2 2 2 2 
2 2 2 2 2 2 2 2 2 
2 2 2 2 2 2 2 2 2 
2 2 2 2 
i 3 400 int
0 0 0 0 0 0 0 0 0 
0 0 0 0 0 0 0 0 0 
0 0 0 0 0 0 0 0 0 
0 0 0 0 0 0 0 0 0 
0 0 0 0 0 0 0 0 0 
0 0 0 0 0 0 0 0 0 
0 0 0 0 0 0 0 0 0 
0 0 0 0 0 0 0 0 0 
0 0 0 0 0 0 0 0 0 
0 0 0 0 0 0 0 0 0 
0 0 0 0 0 0 0 0 0 
0 0 0 0 0 0 0 0 0 
0 0 0 0 0 0 0 0 0 
0 0 0 0 0 0 0 0 0 
0 0 0 0 0 0 0 0 0 
0 0 0 0 0 0 0 0 0 
0 0 0 0 0 0 0 0 0 
0 0 0 0 0 0 0 0 0 
0 0 0 0 0 0 0 0 0 
0 0 0 0 0 0 0 0 0 
0 0 0 0 0 0 0 0 0 
0 0 0 0 0 0 0 0 0 
0 0 0 0 0 0 0 0 0 
0 0 0 0 0 0 0 0 0 
0 0 0 0 0 0 0 0 0 
0 0 0 0 0 0 0 0 0 
0 0 0 0 0 0 0 0 0 
0 0 0 0 0 0 0 0 0 
0 0 0 0 0 0 0 0 0 
0 0 0 0 0 0 0 0 0 
0 0 0 0 0 0 0 0 0 
0 0 0 0 0 0 0 0 0 
0 0 0 0 0 0 0 0 0 
0 0 0 0 0 0 0 0 0 
0 0 0 0 0 0 0 0 0 
0 0 0 0 0 0 0 0 0 
0 0 0 0 0 0 0 0 0 
0 0 0 0 0 0 0 0 0 
0 0 0 0 0 0 0 0 0 
0 0 0 0 0 0 0 0 0 
0 0 0 0 0 0 0 0 0 
0 0 0 0 0 0 0 0 0 
0 0 0 0 0 0 0 0 0 
0 0 0 0 0 0 0 0 0 
0 0 0 0 0 0 0 0 0 
0 0 0 0 0 0 0 0 0 
0 0 0 0 0 0 0 0 0 
0 0 0 0 0 0 0 0 0 
0 0 0 0 0 0 0 0 0 
0 0 0 0 0 0 0 0 0 
0 0 0 0 0 0 0 0 0 
0 0 0 0 0 0 0 0 0 
0 0 0 0 0 0 0 0 0 
0 0 0 0 0 0 0 0 0 
0 0 0 0 0 0 0 0 0 
0 0 0 0 0 0 0 0 0 
0 0 0 0 0 0 0 0 0 
0 0 0 0 0 0 0 0 0 
0 0 0 0 0 0 0 0 0 
0 0 0 0 0 0 0 0 0 
0 0 0 0 0 0 0 0 0 
0 0 0 0 0 0 0 0 0 
0 0 0 0 0 0 0 0 0 
0 0 0 0 0 0 0 0 0 
0 0 0 0 0 0 0 0 0 
0 0 0 0 0 0 0 0 0 
0 0 0 0 0 0 0 0 0 
0 0 0 0 0 0 0 0 0 
0 0 0 0 0 0 0 0 0 
0 0 0 0 0 0 0 0 0 
0 0 0 0 0 0 0 0 0 
0 0 0 0 0 0 0 0 0 
0 0 0 0 0 0 0 0 0 
0 0 0 0 0 0 0 0 0 
0 0 0 0 0 0 0 0 0 
0 0 0 0 0 0 0 0 0 
0 0 0 0 0 0 0 0 0 
0 0 0 0 0 0 0 0 0 
0 0 0 0 0 0 0 0 0 
0 0 0 0 0 0 0 0 0 
0 0 0 0 0 0 0 0 0 
0 0 0 0 0 0 0 0 0 
0 0 0 0 0 0 0 0 0 
0 0 0 0 0 0 0 0 0 
0 0 0 0 0 0 0 0 0 
0 0 0 0 0 0 0 0 0 
0 0 0 0 0 0 0 0 0 
0 0 0 0 0 0 0 0 0 
0 0 0 0 0 0 0 0 0 
0 0 0 0 0 0 0 0 0 
0 0 0 0 0 0 0 0 0 
0 0 0 0 0 0 0 0 0 
0 0 0 0 0 0 0 0 0 
0 0 0 0 0 0 0 0 0 
0 0 0 0 0 0 0 0 0 
0 0 0 0 0 0 0 0 0 
0 0 0 0 0 0 0 0 0 
0 0 0 0 0 0 0 0 0 
0 0 0 0 0 0 0 0 0 
0 0 0 0 0 0 0 0 0 
0 0 0 0 0 0 0 0 0 
0 0 0 0 0 0 0 0 0 
0 0 0 0 0 0 0 0 0 
0 0 0 0 0 0 0 0 0 
0 0 0 0 0 0 0 0 0 
0 0 0 0 0 0 0 0 0 
0 0 0 0 0 0 0 0 0 
0 0 0 0 0 0 0 0 0 
0 0 0 0 0 0 0 0 0 
0 0 0 0 0 0 0 0 0 
0 0 0 0 0 0 0 0 0 
0 0 0 0 0 0 0 0 0 
0 0 0 0 0 0 0 0 0 
0 0 0 0 0 0 0 0 0 
0 0 0 0 0 0 0 0 0 
0 0 0 0 0 0 0 0 0 
0 0 0 0 0 0 0 0 0 
0 0 0 0 0 0 0 0 0 
0 0 0 0 0 0 0 0 0 
0 0 0 0 0 0 0 0 0 
0 0 0 0 0 0 0 0 0 
0 0 0 0 0 0 0 0 0 
0 0 0 0 0 0 0 0 0 
0 0 0 0 0 0 0 0 0 
0 0 0 0 0 0 0 0 0 
0 0 0 0 0 0 0 0 0 
0 0 0 0 0 0 0 0 0 
0 0 0 0 0 0 0 0 0 
0 0 0 0 0 0 0 0 0 
0 0 0 0 0 0 0 0 0 
0 0 0 0 0 0 0 0 0 
0 0 0 0 0 0 0 0 0 
0 0 0 0 0 0 0 0 0 
0 0 0 
v 3 400 double
0.023165086804 -0.039089703448 0.057416146479 -0.024986283091 -0.030886148999 -0.068899346894 -0.026010667019 -0.023333346671 -0.021128791393 
0.00042695319134 0.13846042764 0.029105660503 0.28784689457 -0.65243370382 -0.001461396721 -0.16699740911 0.063356798937 -0.041213788474 
0.0037691867814 0.33078605401 -0.0136301897 -0.0078306826972 0.031823625041 0.16340380889 0.010012280053 -0.00049070136536 0.003761834785 
-0.027682094838 0.035560805087 0.07204171858 0.058491060856 -0.5089740009 0.030202727789 -0.011661713663 -0.095629695971 0.01381179441 
-0.029925872508 -0.17427131285 0.068376575767 -0.030094895126 -0.052927071231 0.046797190941 -0.12349751645 -0.094237540573 -0.053098788692 
0.088754276994 0.22662720955 0.01755179333 -0.032235806057 0.015450186834 0.090000174597 -0.013734895208 -0.48692684303 0.10265739592 
-0.00066328633309 0.27334262606 0.093316999735 0.05465695248 0.035661200456 0.002522766496 -0.00049238776446 0.30531641791 -0.012221458128 
-0.28740901424 0.024229724479 0.0046663801205 -0.0080798866824 0.11491029134 -0.0011328419854 0 0.410001241 0 
-0.063823259112 0.058535500158 -0.04573744739 0.34398091997 -0.20015809436 0.077235193789 0.063215500432 0.15347565178 0.064743926564 
0.012718550083 0.067616469755 0.01425317236 -0.20715466137 0.19890547299 0.21383270877 -0.034384732432 -0.21880976955 0.24522335313 
0.039092230721 0.02350456043 0.040307869976 -0.005644904192 0.11634111591 0.004857108426 0.14016894286 0.031811602502 0.19473319261 
0.12933529232 0.042588217061 0.051919416551 -0.02568388976 0.17898130461 0.043235618101 0.074265362755 -0.20081958034 -0.091183025153 
0.17787372481 0.094049838707 0.0037693634138 -0.0096575554909 0.27005267014 0.0080604148417 0.10565630516 -0.04783649046 0.27747699068 
0.099974090402 0.01044452285 0.084876551395 -0.040956546694 0.26237529859 -0.077021290032 0 0.39896583638 0 
0.13661668703 0.19903366462 -0.027386440147 -0.097613623005 0.14261836488 -0.069878233524 8.7304082862e-05 0.05658216547 0.0490846904 
0.087677839082 0.25213227295 0.15366330954 -0.031461244189 -0.038800911572 0.055874732435 -0.00010155981897 0.4026845298 0.00010091191765 
0.028135713549 -0.096028905037 0.39390411585 -0.082935369571 0.12454513688 0.22031739751 0.07009764063 0.062968823084 -0.19233307871 
0 0.4099646538 0 0.048239276178 0.099225294711 0.24497616456 0 0.39895779965 -0.0048950405667 
-0.031545988205 0.03808721382 0.20551580488 -0.21182349314 0.046633813357 -0.020952048906 -0.12936023577 -0.043487840632 0.063024878278 
-0.013439671783 0.51232874696 -0.080587636658 0 0.39875905054 0 0.1287683514 0.19121853907 0.11076579337 
-1.4485258125e-05 0.39873630553 -3.634419112e-05 0.0073616794846 0.22860097262 0.0056379145434 -0.004507024569 0.40045571211 -0.019038581245 
0.013750131286 0.41310435568 -0.010249234026 0.1798539911 0.19236844709 0.15816500153 -0.10748067159 0.095648355138 0.12403656405 
-0.21558529215 -0.019513045433 -0.17941226195 0.21273066105 0.083784470045 0.0040210919325 0.32876983248 -0.031845621495 -0.32283421205 
0.16177005642 -0.07644656374 -0.00059768219633 0.16516498594 -0.03766484776 0.11888971262 0 0.39374558319 -0.0047274651976 
-0.0006249839803 0.39654364795 -0.0035443033661 0 0.41049660782 0 0.25500455134 -0.1417376939 -0.16062557434 
-0.21192915926 -0.071779856971 0.31197155673 0 0.39904491296 0 0.10261538139 0.024450565892 0.019208162786 
0 0.40508628054 1.1391752074e-05 0.069118018113 -0.24907464687 -0.37502416145 0.042367095678 0.06056284642 -0.098980876344 
-0.14104871598 0.066372794091 -0.059408977745 -0.0072003966249 -0.10840855206 -0.13291443767 -0.044237452005 0.0062643316779 0.3233502501 
0.22551260704 -0.065751710566 -0.078506145648 0 0.38773520475 0 -0.012030135824 -0.07105517341 -0.34916226996 
0.027299067379 0.039904766088 -0.010931840784 0.048434140347 -0.15506140955 -0.22411960559 0.024725401975 0.083038042692 -0.060573489246 
-0.0030995011966 0.4005287818 -0.0015598553611 -0.046716239386 0.008393984018 -0.03300470256 0.13380049924 -0.012096676231 0.09447856496 
-0.14770044765 0.17433285824 -0.010388830832 -0.016476201133 0.099454444818 -0.084306564822 0.1390817071 0.072299369939 -0.17914983746 
-0.018713004647 0.38875185117 7.8913229596e-15 0.0017389604782 0.39882328398 -0.0017389604782 -0.23830282647 -0.36367357967 0.21886417321 
0.045844753257 0.11028899352 -0.1898000073 -0.078021277611 0.075909643614 -0.0061330162864 -0.061863690536 0.029038440977 -0.032919775106 
-0.078391582034 -0.038607514577 0.13975654589 -0.033257688021 -0.037639262398 -0.056297216848 0.20728729408 -0.095368641628 -0.10246185535 
-0.0014556396497 0.083060012092 0.062429880765 -0.1916635199 0.042986522718 0.03531490732 -0.0053444608278 0.09390465394 -0.0053444608277 
0.043246975942 -0.096829665809 -0.087001656104 0.058087612515 0.020893658911 0.057573748421 -0.011140416409 0.097767829241 -0.12921837017 
-0.026301618679 0.19420349068 -0.026301618679 0.070393117466 -0.034635907313 -0.019210562924 -0.04239299415 0.032731008683 -0.025360640441 
-0.031531782225 0.037764724276 0.0014401122121 0.20027919382 -0.077175921503 -0.014410602177 0.08384646776 0.068416862212 0.012924444158 
-0.020239216445 0.14448362973 -0.086741887639 -0.030934999056 -0.083252271768 -0.0063757326448 -0.11868926291 0.18694444968 -0.13538814845 
-0.011962435359 0.15610415821 -0.0034489866453 0.12710655058 0.017310071384 0.15393163884 -0.040562073389 -0.35263073234 0.0035808446457 
0.020843683995 0.062954747489 -0.02526832503 -0.035287073814 0.050609594592 0.022602434066 -0.021958819501 0.054191597684 0.048298013441 
-0.010507926982 -0.11870750381 0.072381012802 0.11749541136 0.10817676129 0.051417533242 0.10233813382 -0.057334312558 0.036009067924 
0.024759942221 0.078324211804 0.044473428344 0.059680260923 -0.0043191316277 -0.0088384705466 0.04529813777 -0.018487324901 0.13121643403 
-0.005825329209 -0.088252136972 0.11333458053 -0.065001341762 0.019554148352 0.081816480773 -0.074711751139 -0.0080621039028 0.03428911449 
-0.0021049833578 0.38899466784 -0.000126565171 0.14839527413 0.58811835358 0.043079860813 -0.055878085168 0.018552676409 0.077319089015 
0.17678183662 0.045691837597 0.11687765623 -0.00052740355422 0.38710693906 -0.0011288573072 0.011954700993 -0.040705281738 0.17212593104 
0.035405350312 -0.063905926467 0.12156320456 -0.0020887119363 0.38986351732 -0.0070491576428 -0.028734807798 0.24194419456 -0.0010331898798 
0.30914526625 -0.076061414229 0.017928294381 -0.093904947289 -0.099015431372 0.20500544521 -0.19919498974 0.03461183434 0.2134277811 
0 0.41007381017 0 -0.00044574958215 0.029243049089 0.10201140501 -0.3079784592 0.20546468663 -0.29548681616 
0.031131950044 0.032706997154 0.10031977015 0.0020429030869 0.39521847008 -0.0010600737839 -0.0016610994383 0.29654940525 0.0087496036546 
-0.0067172086632 0.56567410001 0.037516284279 -0.032686606129 0.21366618101 -0.030099490058 0.012190777852 0.32929773123 0.012633784709 
0 0.41052549956 0 -0.1805049794 0.05781629622 -0.033949824544 0.12619151306 -0.030120305532 -0.12723660908 
0 0.39882697079 0 0 0.39925497113 0 0.16820795446 0.029549338883 0.12446726565 
0.0023122065005 0.39628274053 0.0023597342796 0.00056348824668 0.40152978625 0.00027402949384 0 0.39875819248 -0.0097057056303 
0.044804293718 0.32049728826 -0.0062287931832 -0.076416026534 0.17725342488 -0.024615689046 -0.20190154007 0.19481537035 0.026359778761 
0.042256730961 0.27150018908 0.1254322865 0.0002814165965 0.39586236908 -0.0042450652735 0 0.39872827304 0 
0 0.38755395842 -0.0050852537353 -8.0938774001e-06 0.39894161244 0 0.067490180065 0.26525617797 0.16187870525 
-0.00036883905222 0.40129851273 -0.0077537456699 -0.027545708121 0.38422685286 0.11030070993 0 0.38761842277 0 
0.0012503121485 0.38702661056 -0.005926866043 -0.0033082998542 0.13377592098 -0.0033247496929 0 0.41016565709 9.1963837408e-06 
0.0002436659938 0.41148920957 0.0063921664547 -0.0046666478446 0.28784143851 -0.0046798590522 -0.018673129003 0.22509155007 0.014510142177 
0 0.3987994427 6.9043932791e-06 -0.053217283839 0.22170666975 -0.058771851548 0.0024336544151 0.40286253151 0.0042270621109 
-0.002634341908 0.41110012695 0.0010203462189 -0.081403630411 0.18753371313 0.15957691278 -0.00032362647397 0.39932044177 -0.0012764948875 
0.36977578319 -0.64772503422 -0.25858240166 0.00051441565056 0.39864167423 0.0017178022421 0.020188320678 0.34687093157 -0.00040929342903 
0.086053560792 0.32893311383 -0.0017445639745 0.003430585782 0.26858144658 0.036345321829 -0.012212897362 0.075823784745 -0.18361467497 
-0.23465860515 0.31091122182 0.049620763329 -0.10548329414 -0.030831930056 -0.0013404948435 0.14052862254 0.048100854141 0.0025797650296 
-0.30057167303 -0.0057001018753 -0.016076409613 -0.094698718667 0.079663079348 -0.023938982104 0.019328964446 -0.069875921765 -0.12175248855 
-0.099007385536 0.082080622725 -0.049446953515 0.091551748861 0.0086515270628 0.064841532019 0.0038089287304 0.016674862861 -0.03121638421 
0.017235900717 -0.0024469671924 0.029170338655 0.036744030912 0.022136844475 0.027257546003 0.0025950413761 0.36678395429 -0.010660808162 