# vtk DataFile Version 5.1
Generated by LIGGGHTS
ASCII
DATASET POLYDATA
POINTS 1457 float
-0.14383 0.0612468 -0.143699 -0.133573 0.0551534 -0.143355 -0.00415625 0.182611 -0.143596 
-0.136417 0.0694526 -0.142447 -0.0369468 0.0847756 -0.135963 -0.140103 0.10099 -0.14036 
-0.0333693 0.131389 -0.138425 -0.140521 0.153371 -0.142243 -0.107734 0.169449 -0.139275 
-0.0693959 0.16939 -0.138959 -0.143095 0.183959 -0.135091 -0.128145 0.0552489 -0.12909 
-0.120778 0.0613166 -0.132065 -0.0870775 0.0640001 -0.128374 -0.129723 0.0845651 -0.133803 
-0.0181479 0.0879072 -0.133842 -0.113058 0.109491 -0.132239 -0.121833 0.0601822 -0.121892 
-0.12912 0.0682896 -0.120747 -0.00431509 0.0659253 -0.122103 -0.0968612 0.0730784 -0.1225 
-0.0347886 0.0877189 -0.125666 -0.034514 0.114174 -0.122211 -0.0692524 0.161998 -0.121024 
-0.0229708 0.168431 -0.120628 -0.12963 0.0832735 -0.118791 -0.143328 0.0928159 -0.112529 
-0.0539549 0.0987719 -0.113489 -0.0437986 0.0954602 -0.114233 -0.0434025 0.148895 -0.119724 
-0.0909611 0.169047 -0.118492 -0.0616211 0.195113 -0.119606 -0.142912 0.0604986 -0.10829 
-0.034668 0.107833 -0.108372 -0.132471 0.110238 -0.111607 -0.109449 0.0659535 -0.0989033 
-0.0331442 0.0649666 -0.091493 -0.133588 0.0744843 -0.0927523 -0.029222 0.161112 -0.0979755 
-0.139372 0.0652241 -0.0853109 -0.0184114 0.0626393 -0.0839046 -0.0674262 0.0939888 -0.0870747 
-0.0983389 0.105705 -0.0906362 -0.0363582 0.126014 -0.0851429 -0.102624 0.070175 -0.0776685 
-0.124336 0.136499 -0.0800563 -0.0755261 0.199371 -0.0758971 -0.0799819 0.199325 -0.0758128 
-0.033115 0.0637024 -0.0738477 -0.0999834 0.14205 -0.0746199 -0.075453 0.199295 -0.0714413 
-0.0799089 0.199249 -0.071357 -0.0902058 0.0674734 -0.0613808 -0.0426358 0.115145 -0.0552421 
-0.0292667 0.161403 -0.0541613 -0.0474911 0.0743879 -0.0481206 -0.00185021 0.088095 -0.049428 
-0.128084 0.116612 -0.0524459 -0.0507017 0.178941 -0.0466134 -0.066927 0.0644608 -0.0374878 
-0.0345907 0.166216 -0.042436 -0.00891408 0.0858991 -0.03192 -0.1272 0.0847711 -0.0263614 
-0.055618 0.089488 -0.0270796 -0.141881 0.0551193 -0.0168988 -0.130175 0.0594095 -0.0164283 
-0.0982592 0.0643727 -0.0187278 -0.0320072 0.0696804 -0.0153108 -0.103019 0.0930107 -0.0169622 
-0.00612467 0.115785 -0.0158003 -0.130085 0.186398 -0.0227141 -0.044788 0.11523 -0.0122328 
-0.0941496 0.0639894 -0.00749192 -0.141225 0.0703419 -0.00659459 -0.0242267 0.0826337 -0.00118482 
-0.13118 0.0957296 -0.00376292 -0.144784 0.0947827 0.00103864 -0.062563 0.18366 0.00608719 
-0.0351246 0.0563631 0.00958841 -0.0158748 0.0573062 0.00898827 -0.142924 0.0670916 0.00954013 
-0.0273672 0.0763706 0.00936808 -0.00993744 0.0759348 0.00838848 -0.00317445 0.0909155 0.0114201 
-0.11765 0.0728475 0.0206498 -0.143822 0.0775995 0.0206878 -0.124516 0.0839489 0.0208857 
-0.0622881 0.123479 0.0190207 -0.107809 0.0571893 0.0291513 -0.131649 0.106807 0.0289865 
-0.13142 0.0719672 0.0318688 -0.102176 0.102998 0.0356655 -0.0153043 0.106238 0.0332089 
-0.1092 0.191996 0.033944 -0.121296 0.094424 0.0390945 -0.0441369 0.0839002 0.0520738 
-0.00982209 0.0846711 0.0530374 -0.143921 0.0868206 0.045197 -0.0149243 0.150148 0.0517956 
-0.0629998 0.0568222 0.0558694 -0.0777218 0.0814153 0.0550874 -0.00287783 0.0905148 0.057288 
-0.0970143 0.0986319 0.0547533 -0.116585 0.125731 0.0576393 -0.136289 0.166375 0.0550375 
-0.0710471 0.199881 0.0565296 -0.0694068 0.075141 0.143198 -0.0710446 0.200016 0.0621375 
-0.0226183 0.0632192 0.0687428 -0.00810558 0.0912529 0.0711797 -0.140721 0.160665 0.0683385 
-0.144441 0.0602936 0.0811346 -0.109876 0.100158 0.0811606 -0.0751154 0.159023 0.0800079 
-0.126371 0.082978 0.0841841 -0.107464 0.16791 0.0910001 -0.0239926 0.0698213 0.0921849 
-0.000683107 0.110539 0.0951884 -0.0291793 0.142006 0.097798 -0.0527841 0.0749721 0.10521 
-0.0990029 0.166494 0.10692 -0.0314841 0.181696 0.0986359 -0.0787585 0.0602699 0.105978 
-0.102504 0.071937 0.109346 -0.140595 0.0818573 0.107119 -0.114241 0.0813457 0.119442 
-0.121784 0.199724 0.117832 -0.117329 0.199948 0.117616 -0.102938 0.105473 0.125906 
-0.121519 0.199629 0.122288 -0.117063 0.199853 0.122071 -0.0486544 0.0803202 0.133531 
-0.119693 0.11912 0.133645 -0.115966 0.133658 0.132175 -0.139989 0.0632435 0.14174 
-0.00836663 0.103529 0.136764 -0.135448 0.122388 0.140442 -0.0978167 0.239995 -0.146905 
-0.0773152 0.242587 -0.146784 -0.050728 0.253707 -0.147147 -0.0733608 0.254781 -0.145971 
-0.0588727 0.261421 -0.146519 -0.0363919 0.261514 -0.146519 -0.0991657 0.318049 -0.14574 
-0.0789139 0.316312 -0.144204 -0.142433 0.340021 -0.146664 -0.112239 0.340021 -0.146664 
-0.0487366 0.341017 -0.146524 -0.0719266 0.341806 -0.146804 -0.0590112 0.345724 -0.14612 
-0.0362832 0.345733 -0.146119 -0.131688 0.359073 -0.146736 -0.13854 0.375833 -0.142772 
-0.128123 0.382501 -0.144112 -0.116132 0.375833 -0.142772 -0.0971799 0.382427 -0.145158 
-0.0789923 0.223197 -0.140704 -0.0937101 0.224893 -0.138698 -0.0807521 0.294869 -0.135969 
-0.0984202 0.296846 -0.137512 -0.105643 0.331125 -0.132015 -0.0591777 0.349197 -0.127864 
-0.0360533 0.349211 -0.127867 -0.0774238 0.254227 -0.128042 -0.053871 0.251978 -0.125076 
-0.05915 0.264083 -0.126865 -0.0360256 0.264097 -0.126867 -0.0657982 0.328949 -0.125265 
-0.05173 0.338822 -0.122971 -0.13854 0.375833 -0.120363 -0.101611 0.266073 -0.119318 
-0.0746094 0.266237 -0.119318 -0.112182 0.289238 -0.116534 -0.142433 0.340021 -0.11647 
-0.112239 0.340021 -0.11647 -0.0974101 0.34435 -0.114525 -0.0540866 0.348258 -0.119485 
-0.0212983 0.348258 -0.119485 -0.074847 0.360535 -0.119105 -0.0487357 0.36833 -0.114134 
-0.0266493 0.36833 -0.114134 -0.126835 0.376806 -0.115885 -0.0975131 0.37687 -0.115726 
-0.105857 0.223505 -0.108245 -0.129137 0.283071 -0.114041 -0.0939194 0.346028 -0.104946 
-0.0898701 0.390279 -0.106446 -0.0405744 0.388436 -0.112647 -0.122812 0.217337 -0.105752 
-0.110116 0.296949 -0.0995862 -0.116517 0.318202 -0.102878 -0.0833371 0.328101 -0.101234 
-0.0642237 0.340222 -0.101886 -0.0673328 0.35642 -0.103765 -0.0333598 0.361005 -0.104183 
-0.0752732 0.369683 -0.0998785 -0.0807326 0.383169 -0.09864 -0.103777 0.228432 -0.0912827 
-0.101611 0.265925 -0.092317 -0.0746093 0.266089 -0.0923168 -0.127064 0.28939 -0.0970856 
-0.112951 0.332718 -0.0940337 -0.0542988 0.343126 -0.0965792 -0.0979835 0.350659 -0.0930178 
-0.0778627 0.352714 -0.0931412 -0.0618049 0.358873 -0.0960483 -0.040297 0.358873 -0.0960483 
-0.0487357 0.36833 -0.0920473 -0.0266493 0.36833 -0.0920473 -0.112102 0.38353 -0.0948449 
-0.0904672 0.382886 -0.0971218 -0.0989198 0.391582 -0.0896555 -0.0992811 0.327252 -0.087155 
-0.0212983 0.348258 -0.0866964 -0.0497821 0.350593 -0.0885238 -0.13296 0.358394 -0.0881998 
-0.0981761 0.358406 -0.0886799 -0.0298382 0.366752 -0.0862902 -0.0966968 0.383169 -0.0845707 
-0.085556 0.392278 -0.0886969 -0.0690656 0.394095 -0.0861793 -0.120105 0.20827 -0.0746316 
-0.075573 0.206054 -0.0758108 -0.0800289 0.206008 -0.0757264 -0.131611 0.209891 -0.0749176 
-0.0995038 0.228113 -0.0775386 -0.0822897 0.226588 -0.0759095 -0.131296 0.249012 -0.0788173 
-0.118736 0.248118 -0.0780848 -0.122368 0.255385 -0.0801504 -0.0346859 0.249991 -0.0781933 
-0.0130834 0.250022 -0.0782899 -0.0977335 0.295412 -0.0777023 -0.0805195 0.293887 -0.0760732 
-0.0848253 0.328423 -0.0775073 -0.0690148 0.326927 -0.0822839 -0.0347326 0.32883 -0.0767106 
-0.0131299 0.328861 -0.0768071 -0.0260448 0.357363 -0.0769747 -0.00509306 0.357447 -0.076723 
-0.126237 0.360994 -0.0816978 -0.104639 0.360904 -0.0820509 -0.0623797 0.366011 -0.079127 
-0.0972143 0.369683 -0.0779374 -0.0752732 0.369683 -0.0779374 -0.0470267 0.375336 -0.0811173 
-0.0572954 0.383167 -0.0751715 -0.0524711 0.396921 -0.0808835 -0.0755 0.205977 -0.0713549 
-0.0799558 0.205932 -0.0712706 -0.135822 0.220466 -0.0745321 -0.11306 0.242222 -0.067339 
-0.0547588 0.328098 -0.072617 -0.102139 0.348746 -0.0730127 -0.099178 0.347135 -0.0683885 
-0.0703485 0.348746 -0.0730127 -0.0659906 0.347135 -0.0683885 -0.0402883 0.358853 -0.0745342 
-0.0333598 0.361032 -0.0687989 -0.0765541 0.370244 -0.0680799 -0.0541068 0.370197 -0.0681497 
-0.0778602 0.39084 -0.0717788 -0.0495858 0.390481 -0.0725257 -0.0857599 0.394724 -0.0720616 
-0.0556027 0.396831 -0.0738346 -0.131759 0.213245 -0.0634152 -0.120253 0.211623 -0.0631296 
-0.119168 0.216645 -0.0626607 -0.10245 0.218129 -0.0613564 -0.101472 0.228277 -0.0603237 
-0.120614 0.281552 -0.0640568 -0.103895 0.28304 -0.0627525 -0.0997013 0.295577 -0.0604874 
-0.082085 0.34571 -0.066118 -0.0498954 0.34579 -0.066217 -0.0253758 0.350707 -0.0638468 
-0.12594 0.361035 -0.0601985 -0.104348 0.360891 -0.0603649 -0.0709532 0.370709 -0.0675049 
-0.0602169 0.368039 -0.0649341 -0.0349721 0.370709 -0.0675049 -0.023428 0.363095 -0.0653532 
-0.00149701 0.36292 -0.0652266 -0.124602 0.392809 -0.0626936 -0.0842574 0.226752 -0.0586947 
-0.0345539 0.248718 -0.0565923 -0.0129513 0.248748 -0.056689 -0.0824872 0.294051 -0.0588584 
-0.0659354 0.299431 -0.0581146 -0.0992811 0.327252 -0.0583577 -0.0705215 0.327153 -0.0587528 
-0.0709064 0.328737 -0.0537923 -0.0409493 0.328997 -0.0541256 -0.0346004 0.327556 -0.0551095 
-0.012998 0.327588 -0.0552063 -0.13248 0.358424 -0.0534161 -0.0976963 0.358437 -0.0538963 
-0.0632992 0.354136 -0.059851 -0.0426261 0.354136 -0.059851 -0.0261786 0.357255 -0.0559664 
-0.00512472 0.357326 -0.0557729 -0.0634841 0.396195 -0.0553773 -0.120495 0.218086 -0.0459422 
-0.121941 0.282997 -0.0473385 -0.105222 0.284482 -0.046034 -0.119346 0.333494 -0.0476971 
-0.0893513 0.333494 -0.0476971 -0.143877 0.35027 -0.0470844 -0.111288 0.35027 -0.0470844 
-0.0300729 0.366965 -0.0513069 -0.11117 0.397371 -0.0446721 -0.086474 0.395512 -0.0470031 
-0.103777 0.219574 -0.0446379 -0.0299229 0.354965 -0.0379444 -0.031852 0.359766 -0.0437502 
-0.0235547 0.36303 -0.0433896 -0.00155806 0.362906 -0.0432656 -0.138612 0.367789 -0.0418209 
-0.0937789 0.368128 -0.0397082 -0.0713897 0.368128 -0.0397082 -0.0927715 0.378707 -0.0442768 
-0.114411 0.3886 -0.0379912 -0.0659997 0.296022 -0.0305197 -0.0633316 0.323425 -0.0342595 
[...]
POINT_DATA 1457
FIELD FieldData 8
id 1 1457 int
3894 3781 3858 3801 3730 3749 3789 3970 3994 
3744 3359 3023 3745 2648 2739 3985 3917 2755 
3738 3927 3966 2901 3952 3932 3937 3785 3823 
3685 3852 3981 3180 3808 3024 3296 3908 3931 
3844 3586 3244 3360 3961 3877 3135 3773 3716 
3896 5166 5162 3960 3939 5167 5163 3731 3242 
3903 3714 3943 3920 2484 3918 3879 3757 3727 
3938 3182 3885 3853 3975 3831 3814 3815 3954 
3746 3971 3820 3297 3906 3873 3962 3919 3925 
3786 3847 3782 3720 3688 2902 2961 3836 3825 
3982 3950 2482 3988 3803 3788 3940 3854 3719 
3406 3911 3587 3775 3955 3909 5146 3729 5147 
3747 3790 3910 3760 3968 3996 3631 3686 3871 
3861 3325 2550 2823 2509 3768 3863 3864 3721 
5170 5174 3941 5171 5175 3136 3875 3956 3689 
3969 3776 4867 4871 4790 4786 4794 4798 4869 
4865 4442 4446 4792 4788 4796 4800 4020 4444 
4018 4448 4022 4870 4866 4872 4868 4024 4797 
4793 4787 4791 4795 4799 4789 4785 4445 4690 
4694 4928 4443 4447 4692 4226 4230 4696 4228 
4232 4019 4023 4926 4924 4017 4332 4042 4922 
4921 4021 4602 4606 4334 4046 4336 4604 4927 
4691 4695 4925 4330 4286 4693 4689 4044 4048 
4229 4225 4605 4608 4441 4594 4231 4227 4084 
4088 4058 4596 4600 4284 5054 5168 5164 5050 
4914 4918 5052 5056 4923 4850 4854 4916 4920 
4598 4603 4852 4856 4060 4064 4086 4090 4045 
4333 4329 4043 4601 4288 5161 5165 5053 5049 
4607 4331 4194 4335 4198 4041 4047 4285 4281 
4485 4474 4196 4200 5051 5055 4938 4942 4915 
4940 4944 4917 4283 4287 4138 4087 4091 4026 
4282 4030 4140 4144 4477 4919 4851 4855 4913 
4658 4595 4599 4483 4487 4853 4849 4085 4089 
4028 4032 4061 4057 4660 4939 4941 4937 4475 
4479 4258 4262 4059 4597 4593 4943 4139 4092 
4141 4137 4260 4197 4193 4481 4264 4659 4578 
4582 4195 4199 4027 4031 4029 4025 4478 4954 
4953 4956 4096 4094 4074 4661 4580 4584 4476 
4480 4076 4095 4261 4482 4955 4957 4860 4259 
4263 4093 4078 4257 4581 4577 4579 4583 4080 
4073 4882 4075 4082 4886 4859 4884 4861 4888 
4362 4366 4077 4079 4083 4364 4368 4676 4346 
4350 4162 4166 4348 4352 4883 4887 4674 4885 
4678 4318 4081 4164 4680 4962 4966 4964 4968 
4881 4314 4270 4316 4320 4008 4365 4361 4168 
4634 4638 4363 4367 4354 4266 4636 4034 4012 
4640 4345 4152 4486 4677 4349 4473 4356 4268 
4963 4967 4965 4961 4675 4679 4484 4319 4498 
4488 4347 4351 4146 4150 4036 4040 4165 4004 
4673 4038 4272 5148 5152 4734 4730 4355 4115 
4005 4158 4119 4002 4736 4163 4167 4068 4072 
4035 4732 4389 4212 4269 4161 5151 5149 5145 
4770 4774 4635 4639 4315 4210 4214 4154 4127 
4637 4117 4156 4121 4160 4772 4776 4313 4357 
4148 4633 4071 4037 4500 4265 4530 4499 4534 
4234 4387 4391 4238 4066 4070 4267 4271 4149 
4114 4236 4729 4216 4393 4065 4125 5106 5110 
5108 5112 4731 4735 4450 4454 4586 4590 4418 
4422 4159 4147 4007 4122 4123 4069 4124 4733 
4240 4452 4456 4317 4003 4536 5107 5111 5109 
5105 4771 4775 4001 4235 4116 4239 4120 4178 
4151 4773 4182 4067 4157 4769 4153 4118 4128 
4039 4424 4592 4145 4006 4501 5082 5086 5084 
5088 4388 4211 4215 4155 4126 4233 4113 4180 
4184 4237 4296 4209 4533 4420 4529 4033 4394 
4532 5083 5087 5085 5081 4538 4591 4555 4559 
4531 4535 4392 4395 4399 4290 4338 4294 4342 
4292 4724 4340 4344 4557 4588 4830 4826 4623 
4814 4451 4455 4587 4506 4611 4615 4419 4423 
4510 4218 4183 4508 4512 4397 4386 4421 4417 
4589 4585 4613 4453 4213 4449 4561 5172 5176 
5034 5038 4874 4878 5036 5040 4738 4742 4722 
4726 4291 4050 4181 4177 4293 4289 4617 4396 
4728 5173 5169 4619 4810 4621 4539 4880 4832 
4828 4274 4295 4179 4740 4052 4744 4610 4341 
4558 4562 4337 4541 4390 5035 5039 4875 4831 
4827 4624 5037 5033 4876 4812 4816 4556 4560 
4400 4339 4343 4509 4505 4398 4385 4725 4614 
4879 4739 4743 4829 4825 4507 4511 4612 4616 
4219 4741 4553 4737 4055 4566 4618 4620 4811 
4622 4877 4568 4564 4815 4723 4727 4873 4275 
4813 4809 4563 4567 4609 4051 4721 4053 4565 
4554 5150 3899 3849 3405 3161 3784 3778 3818 
3838 3945 3755 3811 3440 5188 5189 5192 5193 
3972 3934 2591 3762 3860 2481 5178 5182 3856 
5179 5183 3717 3900 3957 3964 3978 3723 2989 
3922 5131 3888 3869 3741 2927 2483 3867 3441 
3324 3850 3614 3805 3737 3851 3809 3712 3914 
3819 3890 3162 2690 2824 3991 3771 2751 3766 
3791 3758 5201 5200 5197 5196 3812 3732 3946 
3840 5208 5204 3665 3208 2962 3442 3828 5205 
5187 3995 3787 2749 3870 5042 5046 3779 2748 
3764 3770 3889 3263 3718 5047 3916 3777 3385 
3763 3993 3692 3913 3974 3979 3772 2963 3999 
3998 3923 3667 2790 3947 3739 2928 3750 3935 
3715 3751 3892 3443 3810 3733 3461 3298 3835 
3936 3846 3958 3754 3833 3977 3930 3883 3725 
3843 3444 3926 3326 2868 3798 3792 3848 3693 
4902 4898 4838 4834 4904 4714 4718 4900 4836 
4840 4716 4720 5122 5126 5190 5191 5194 5195 
5124 5128 4626 4630 5123 5127 5125 5121 4994 
4998 4899 4903 5000 4996 4897 4715 4719 4901 
4628 4632 4717 4713 5180 5184 4835 4839 4837 
4833 4515 4519 4517 4521 5181 5177 4999 4995 
4997 4993 4974 4978 4402 4406 4404 4408 5130 
5134 4972 4976 5136 4627 4631 4523 4527 4629 
4625 5135 5132 5133 5129 4975 4979 4702 4698 
4516 4520 4704 4700 4518 4522 4525 4514 4973 
4977 4405 4401 4980 4984 4982 4986 4754 4758 
4426 4430 4403 4407 4298 4756 4760 4062 4428 
4432 5058 5062 5060 5064 4699 4703 4524 4528 
4701 4697 4526 4513 5059 5063 4988 4981 4992 
4985 5061 5057 4983 4987 4762 4766 4490 4494 
4370 4753 4142 4302 4764 4492 4496 5010 5014 
4890 5012 5016 4894 4759 4892 4896 4202 4206 
4757 4374 4768 4300 4304 4429 4425 4372 4376 
4493 4989 4971 5009 4990 4970 4755 4662 4427 
4491 4431 4495 4546 4063 4204 4208 4489 4664 
4552 5011 5015 5013 4763 4767 4889 4686 4682 
4550 4458 4548 4684 4460 5203 5202 5199 5198 
4946 4950 4891 4895 4969 4991 4948 4952 4893 
4666 4670 4761 4462 4371 4375 4143 4303 4765 
4299 4688 4301 4464 4373 4369 4668 4672 5206 
5186 4642 4203 4205 4201 4207 4457 4297 4644 
4648 5185 5207 4958 4947 4951 4960 4949 4945 
4646 4663 4547 4551 4463 4459 4685 4549 4657 
4545 4681 5048 5044 4683 4687 4461 4959 4862 
4864 4667 4671 4669 4665 5043 5045 5041 4643 
4647 4645 4641 4858 5090 5094 4863 4857 4650 
4654 4652 4656 4010 5089 5092 5096 4806 4802 
4750 4378 4382 4808 4804 4748 4752 4014 4380 
4384 5138 5142 5098 5102 5091 5095 5144 5140 
5002 5006 5100 5104 5093 4746 5004 5008 4306 
4310 4308 4312 4653 5143 5139 5099 5103 5137 
5141 5101 5097 4801 4358 5003 5007 4803 4807 
5005 5001 4706 4710 4651 4805 4655 4186 4360 
4192 4649 4708 4712 4747 4751 4379 4383 4502 
4745 4190 4749 4311 4540 4309 4305 4245 4016 
4381 4377 4247 4307 4243 4103 4013 4009 4188 
4101 5074 5078 5076 5080 4353 4249 4504 4707 
4711 4503 4185 4246 4709 4105 5075 5079 5026 
5077 5073 4410 4414 4187 4191 4324 4328 4189 
4412 4416 4099 4705 4015 4011 5030 4908 4912 
4248 4244 4102 4250 5066 5070 5027 4906 4910 
5068 5072 5032 5028 4542 4434 4438 4100 4104 
4359 4544 4497 4436 4440 5067 5071 5018 5022 
5031 4911 5029 5020 4326 4255 4322 4130 4134 
4325 4321 4409 4242 4106 4842 4846 5069 4907 
5065 5025 5024 4905 4909 4411 4415 4222 4170 
4174 4132 4136 4220 4224 4253 4433 4413 5154 
5159 5158 5114 5118 5156 5157 5153 5160 5019 
5023 4930 4934 5116 5120 5021 5017 4818 4822 
4932 4844 4848 4466 4820 4824 4054 4251 4172 
4176 4437 4276 5155 5115 5119 4843 4847 5117 
5113 4543 4936 4278 4435 4570 4439 4574 4470 
4056 4107 4111 4537 4468 4133 4472 4280 4572 
4576 4931 4935 4781 4252 4256 4323 4131 4327 
4135 4129 4109 4098 4221 4254 4241 4783 4779 
4819 4823 4933 4929 4845 4841 4777 4223 4821 
4817 4171 4173 4169 4217 4277 4778 4782 4279 
4571 4575 4467 4471 4780 4784 4108 4112 4175 
4049 4110 4097 4465 4273 4469 4573 4569 
type 1 1457 int
2 2 2 2 2 2 2 2 2 
2 2 2 2 2 2 2 2 2 
2 2 2 2 2 2 2 2 2 
2 2 2 2 2 2 2 2 2 
2 2 2 2 2 2 2 2 2 
2 2 2 2 2 2 2 2 2 
2 2 2 2 2 2 2 2 2 
2 2 2 2 2 2 2 2 2 
2 2 2 2 2 2 2 2 2 
2 2 2 2 2 2 2 2 2 
2 2 2 2 2 2 2 2 2 
2 2 2 2 2 2 2 2 2 
2 2 2 2 2 2 2 2 2 
2 2 2 2 2 2 2 2 2 
2 2 2 2 2 2 2 2 2 
2 2 2 2 2 2 2 2 2 
2 2 2 2 2 2 2 2 2 
2 2 2 2 2 2 2 2 2 
2 2 2 2 2 2 2 2 2 
2 2 2 2 2 2 2 2 2 
2 2 2 2 2 2 2 2 2 
2 2 2 2 2 2 2 2 2 
2 2 2 2 2 2 2 2 2 
2 2 2 2 2 2 2 2 2 
2 2 2 2 2 2 2 2 2 
2 2 2 2 2 2 2 2 2 
2 2 2 2 2 2 2 2 2 
2 2 2 2 2 2 2 2 2 
2 2 2 2 2 2 2 2 2 
2 2 2 2 2 2 2 2 2 
2 2 2 2 2 2 2 2 2 
2 2 2 2 2 2 2 2 2 
2 2 2 2 2 2 2 2 2 
2 2 2 2 2 2 2 2 2 
2 2 2 2 2 2 2 2 2 
2 2 2 2 2 2 2 2 2 
2 2 2 2 2 2 2 2 2 
2 2 2 2 2 2 2 2 2 
2 2 2 2 2 2 2 2 2 
2 2 2 2 2 2 2 2 2 
2 2 2 2 2 2 2 2 2 
2 2 2 2 2 2 2 2 2 
2 2 2 2 2 2 2 2 2 
2 2 2 2 2 2 2 2 2 
2 2 2 2 2 2 2 2 2 
2 2 2 2 2 2 2 2 2 
2 2 2 2 2 2 2 2 2 
2 2 2 2 2 2 2 2 2 
2 2 2 2 2 2 2 2 2 
2 2 2 2 2 2 2 2 2 
2 2 2 2 2 2 2 2 2 
2 2 2 2 2 2 2 2 2 
2 2 2 2 2 2 2 2 2 
2 2 2 2 2 2 2 2 2 
2 2 2 2 2 2 2 2 2 
2 2 2 2 2 2 2 2 2 
2 2 2 2 2 2 2 2 2 
2 2 2 2 2 2 2 2 2 
2 2 2 2 2 2 2 2 2 
2 2 2 2 2 2 2 2 2 
2 2 2 2 2 2 2 2 2 
2 2 2 2 2 2 2 2 2 
2 2 2 2 2 2 2 2 2 
2 2 2 2 2 2 2 2 2 
2 2 2 2 2 2 2 2 2 
2 2 2 2 2 2 2 2 2 
2 2 2 2 2 2 2 2 2 
2 2 2 2 2 2 2 2 2 
2 2 2 2 2 2 2 2 2 
2 2 2 2 2 2 2 2 2 
2 2 2 2 2 2 2 2 2 
2 2 2 2 2 2 2 2 2 
2 2 2 2 2 2 2 2 2 
2 2 2 2 2 2 2 2 2 
2 2 2 2 2 2 2 2 2 
2 2 2 2 2 2 2 2 2 
2 2 2 2 2 2 2 2 2 
2 2 2 2 2 2 2 2 2 
2 2 2 2 2 2 2 2 2 
2 2 2 2 2 2 2 2 2 
2 2 2 2 2 2 2 2 2 
2 2 2 2 2 2 2 2 2 
2 2 2 2 2 2 2 2 2 
2 2 2 2 2 2 2 2 2 
2 2 2 2 2 2 2 2 2 
2 2 2 2 2 2 2 2 2 
2 2 2 2 2 2 2 2 2 
2 2 2 2 2 2 2 2 2 
2 2 2 2 2 2 2 2 2 
2 2 2 2 2 2 2 2 2 
2 2 2 2 2 2 2 2 2 
2 2 2 2 2 2 2 2 2 
2 2 2 2 2 2 2 2 2 
2 2 2 2 2 2 2 2 2 
2 2 2 2 2 2 2 2 2 
2 2 2 2 2 2 2 2 2 
2 2 2 2 2 2 2 2 2 
2 2 2 2 2 2 2 2 2 
2 2 2 2 2 2 2 2 2 
2 2 2 2 2 2 2 2 2 
2 2 2 2 2 2 2 2 2 
2 2 2 2 2 2 2 2 2 
2 2 2 2 2 2 2 2 2 
2 2 2 2 2 2 2 2 2 
2 2 2 2 2 2 2 2 2 
2 2 2 2 2 2 2 2 2 
2 2 2 2 2 2 2 2 2 
2 2 2 2 2 2 2 2 2 
2 2 2 2 2 2 2 2 2 
2 2 2 2 2 2 2 2 2 
2 2 2 2 2 2 2 2 2 
2 2 2 2 2 2 2 2 2 
2 2 2 2 2 2 2 2 2 
2 2 2 2 2 2 2 2 2 
2 2 2 2 2 2 2 2 2 
2 2 2 2 2 2 2 2 2 
2 2 2 2 2 2 2 2 2 
2 2 2 2 2 2 2 2 2 
2 2 2 2 2 2 2 2 2 
2 2 2 2 2 2 2 2 2 
2 2 2 2 2 2 2 2 2 
2 2 2 2 2 2 2 2 2 
2 2 2 2 2 2 2 2 2 
2 2 2 2 2 2 2 2 2 
2 2 2 2 2 2 2 2 2 
2 2 2 2 2 2 2 2 2 
2 2 2 2 2 2 2 2 2 
2 2 2 2 2 2 2 2 2 
2 2 2 2 2 2 2 2 2 
2 2 2 2 2 2 2 2 2 
2 2 2 2 2 2 2 2 2 
2 2 2 2 2 2 2 2 2 
2 2 2 2 2 2 2 2 2 
2 2 2 2 2 2 2 2 2 
2 2 2 2 2 2 2 2 2 
2 2 2 2 2 2 2 2 2 
2 2 2 2 2 2 2 2 2 
2 2 2 2 2 2 2 2 2 
2 2 2 2 2 2 2 2 2 
2 2 2 2 2 2 2 2 2 
2 2 2 2 2 2 2 2 2 
2 2 2 2 2 2 2 2 2 
2 2 2 2 2 2 2 2 2 
2 2 2 2 2 2 2 2 2 
2 2 2 2 2 2 2 2 2 
2 2 2 2 2 2 2 2 2 
2 2 2 2 2 2 2 2 2 
2 2 2 2 2 2 2 2 2 
2 2 2 2 2 2 2 2 2 
2 2 2 2 2 2 2 2 2 
2 2 2 2 2 2 2 2 2 
2 2 2 2 2 2 2 2 2 
2 2 2 2 2 2 2 2 2 
2 2 2 2 2 2 2 2 2 
2 2 2 2 2 2 2 2 2 
2 2 2 2 2 2 2 2 2 
2 2 2 2 2 2 2 2 2 
2 2 2 2 2 2 2 2 2 
2 2 2 2 2 2 2 2 2 
2 2 2 2 2 2 2 2 2 
2 2 2 2 2 2 2 2 2 
2 2 2 2 2 2 2 2 
i 3 1457 int
0 0 0 0 0 0 0 0 0 
0 0 0 0 0 0 0 0 0 
0 0 0 0 0 0 0 0 0 
0 0 0 0 0 0 0 0 0 
0 0 0 0 0 0 0 0 0 
0 0 0 0 0 0 0 0 0 
0 0 0 0 0 0 0 0 0 
0 0 0 0 0 0 0 0 0 
0 0 0 0 0 0 0 0 0 
0 0 0 0 0 0 0 0 0 
0 0 0 0 0 0 0 0 0 
0 0 0 0 0 0 0 0 0 
0 0 0 0 0 0 0 0 0 
0 0 0 0 0 0 0 0 0 
0 0 0 0 0 0 0 0 0 
0 0 0 0 0 0 0 0 0 
0 0 0 0 0 0 0 0 0 
0 0 0 0 0 0 0 0 0 
0 0 0 0 0 0 0 0 0 
0 0 0 0 0 0 0 0 0 
0 0 0 0 0 0 0 0 0 
0 0 0 0 0 0 0 0 0 
0 0 0 0 0 0 0 0 0 
0 0 0 0 0 0 0 0 0 
0 0 0 0 0 0 0 0 0 
0 0 0 0 0 0 0 0 0 
0 0 0 0 0 0 0 0 0 
0 0 0 0 0 0 0 0 0 
0 0 0 0 0 0 0 0 0 
0 0 0 0 0 0 0 0 0 
0 0 0 0 0 0 0 0 0 
0 0 0 0 0 0 0 0 0 
0 0 0 0 0 0 0 0 0 
0 0 0 0 0 0 0 0 0 
0 0 0 0 0 0 0 0 0 
0 0 0 0 0 0 0 0 0 
0 0 0 0 0 0 0 0 0 
0 0 0 0 0 0 0 0 0 
0 0 0 0 0 0 0 0 0 
0 0 0 0 0 0 0 0 0 
0 0 0 0 0 0 0 0 0 
0 0 0 0 0 0 0 0 0 
0 0 0 0 0 0 0 0 0 
0 0 0 0 0 0 0 0 0 
0 0 0 0 0 0 0 0 0 
0 0 0 0 0 0 0 0 0 
0 0 0 0 0 0 0 0 0 
0 0 0 0 0 0 0 0 0 
0 0 0 0 0 0 0 0 0 
0 0 0 0 0 0 0 0 0 
0 0 0 0 0 0 0 0 0 
0 0 0 0 0 0 0 0 0 
0 0 0 0 0 0 0 0 0 
0 0 0 0 0 0 0 0 0 
0 0 0 0 0 0 0 0 0 
0 0 0 0 0 0 0 0 0 
0 0 0 0 0 0 0 0 0 
0 0 0 0 0 0 0 0 0 
0 0 0 0 0 0 0 0 0 
0 0 0 0 0 0 0 0 0 
0 0 0 0 0 0 0 0 0 
0 0 0 0 0 0 0 0 0 
0 0 0 0 0 0 0 0 0 
0 0 0 0 0 0 0 0 0 
0 0 0 0 0 0 0 0 0 
0 0 0 0 0 0 0 0 0 
0 0 0 0 0 0 0 0 0 
0 0 0 0 0 0 0 0 0 
0 0 0 0 0 0 0 0 0 
0 0 0 0 0 0 0 0 0 
0 0 0 0 0 0 0 0 0 
0 0 0 0 0 0 0 0 0 
0 0 0 0 0 0 0 0 0 
0 0 0 0 0 0 0 0 0 
0 0 0 0 0 0 0 0 0 
0 0 0 0 0 0 0 0 0 
0 0 0 0 0 0 0 0 0 
0 0 0 0 0 0 0 0 0 
0 0 0 0 0 0 0 0 0 
0 0 0 0 0 0 0 0 0 
0 0 0 0 0 0 0 0 0 
0 0 0 0 0 0 0 0 0 
0 0 0 0 0 0 0 0 0 
0 0 0 0 0 0 0 0 0 
0 0 0 0 0 0 0 0 0 
0 0 0 0 0 0 0 0 0 
0 0 0 0 0 0 0 0 0 
0 0 0 0 0 0 0 0 0 
0 0 0 0 0 0 0 0 0 
0 0 0 0 0 0 0 0 0 
0 0 0 0 0 0 0 0 0 
0 0 0 0 0 0 0 0 0 
0 0 0 0 0 0 0 0 0 
0 0 0 0 0 0 0 0 0 
0 0 0 0 0 0 0 0 0 
0 0 0 0 0 0 0 0 0 
0 0 0 0 0 0 0 0 0 
0 0 0 0 0 0 0 0 0 
0 0 0 0 0 0 0 0 0 
0 0 0 0 0 0 0 0 0 
0 0 0 0 0 0 0 0 0 
0 0 0 0 0 0 0 0 0 
0 0 0 0 0 0 0 0 0 
0 0 0 0 0 0 0 0 0 
0 0 0 0 0 0 0 0 0 
0 0 0 0 0 0 0 0 0 
0 0 0 0 0 0 0 0 0 
0 0 0 0 0 0 0 0 0 
0 0 0 0 0 0 0 0 0 
0 0 0 0 0 0 0 0 0 
0 0 0 0 0 0 0 0 0 
0 0 0 0 0 0 0 0 0 
0 0 0 0 0 0 0 0 0 
0 0 0 0 0 0 0 0 0 
0 0 0 0 0 0 0 0 0 
0 0 0 0 0 0 0 0 0 
0 0 0 0 0 0 0 0 0 
0 0 0 0 0 0 0 0 0 
0 0 0 0 0 0 0 0 0 
0 0 0 0 0 0 0 0 0 
0 0 0 0 0 0 0 0 0 
0 0 0 0 0 0 0 0 0 
0 0 0 0 0 0 0 0 0 
0 0 0 0 0 0 0 0 0 
0 0 0 0 0 0 0 0 0 
0 0 0 0 0 0 0 0 0 
0 0 0 0 0 0 0 0 0 
0 0 0 0 0 0 0 0 0 
0 0 0 0 0 0 0 0 0 
0 0 0 0 0 0 0 0 0 
0 0 0 0 0 0 0 0 0 
0 0 0 0 0 0 0 0 0 
0 0 0 0 0 0 0 0 0 
0 0 0 0 0 0 0 0 0 
0 0 0 0 0 0 0 0 0 
0 0 0 0 0 0 0 0 0 
0 0 0 0 0 0 0 0 0 
0 0 0 0 0 0 0 0 0 
0 0 0 0 0 0 0 0 0 
0 0 0 0 0 0 0 0 0 
0 0 0 0 0 0 0 0 0 
0 0 0 0 0 0 0 0 0 
0 0 0 0 0 0 0 0 0 
0 0 0 0 0 0 0 0 0 
0 0 0 0 0 0 0 0 0 
0 0 0 0 0 0 0 0 0 
0 0 0 0 0 0 0 0 0 
0 0 0 0 0 0 0 0 0 
0 0 0 0 0 0 0 0 0 
0 0 0 0 0 0 0 0 0 
0 0 0 0 0 0 0 0 0 
0 0 0 0 0 0 0 0 0 
0 0 0 0 0 0 0 0 0 
0 0 0 0 0 0 0 0 0 
0 0 0 0 0 0 0 0 0 
0 0 0 0 0 0 0 0 0 
0 0 0 0 0 0 0 0 0 
0 0 0 0 0 0 0 0 0 
0 0 0 0 0 0 0 0 0 
0 0 0 0 0 0 0 0 0 
0 0 0 0 0 0 0 0 0 
0 0 0 0 0 0 0 0 0 
0 0 0 0 0 0 0 0 0 
0 0 0 0 0 0 0 0 0 
0 0 0 0 0 0 0 0 0 
0 0 0 0 0 0 0 0 0 
0 0 0 0 0 0 0 0 0 
0 0 0 0 0 0 0 0 0 
0 0 0 0 0 0 0 0 0 
0 0 0 0 0 0 0 0 0 
0 0 0 0 0 0 0 0 0 
0 0 0 0 0 0 0 0 0 
0 0 0 0 0 0 0 0 0 
0 0 0 0 0 0 0 0 0 
0 0 0 0 0 0 0 0 0 
0 0 0 0 0 0 0 0 0 
0 0 0 0 0 0 0 0 0 
0 0 0 0 0 0 0 0 0 
0 0 0 0 0 0 0 0 0 
0 0 0 0 0 0 0 0 0 
0 0 0 0 0 0 0 0 0 
0 0 0 0 0 0 0 0 0 
0 0 0 0 0 0 0 0 0 
0 0 0 0 0 0 0 0 0 
0 0 0 0 0 0 0 0 0 
0 0 0 0 0 0 0 0 0 
0 0 0 0 0 0 0 0 0 
0 0 0 0 0 0 0 0 0 
0 0 0 0 0 0 0 0 0 
0 0 0 0 0 0 0 0 0 
0 0 0 0 0 0 0 0 0 
0 0 0 0 0 0 0 0 0 
0 0 0 0 0 0 0 0 0 
0 0 0 0 0 0 0 0 0 
0 0 0 0 0 0 0 0 0 
0 0 0 0 0 0 0 0 0 
0 0 0 0 0 0 0 0 0 
0 0 0 0 0 0 0 0 0 
0 0 0 0 0 0 0 0 0 
0 0 0 0 0 0 0 0 0 
0 0 0 0 0 0 0 0 0 
0 0 0 0 0 0 0 0 0 
0 0 0 0 0 0 0 0 0 
0 0 0 0 0 0 0 0 0 
0 0 0 0 0 0 0 0 0 
0 0 0 0 0 0 0 0 0 
0 0 0 0 0 0 0 0 0 
0 0 0 0 0 0 0 0 0 
0 0 0 0 0 0 0 0 0 
0 0 0 0 0 0 0 0 0 
0 0 0 0 0 0 0 0 0 
0 0 0 0 0 0 0 0 0 
0 0 0 0 0 0 0 0 0 
0 0 0 0 0 0 0 0 0 
0 0 0 0 0 0 0 0 0 
0 0 0 0 0 0 0 0 0 
0 0 0 0 0 0 0 0 0 
0 0 0 0 0 0 0 0 0 
0 0 0 0 0 0 0 0 0 
0 0 0 0 0 0 0 0 0 
0 0 0 0 0 0 0 0 0 
0 0 0 0 0 0 0 0 0 
0 0 0 0 0 0 0 0 0 
0 0 0 0 0 0 0 0 0 
0 0 0 0 0 0 0 0 0 
0 0 0 0 0 0 0 0 0 
0 0 0 0 0 0 0 0 0 
0 0 0 0 0 0 0 0 0 
0 0 0 0 0 0 0 0 0 
0 0 0 0 0 0 0 0 0 
0 0 0 0 0 0 0 0 0 
0 0 0 0 0 0 0 0 0 
0 0 0 0 0 0 0 0 0 
0 0 0 0 0 0 0 0 0 
0 0 0 0 0 0 0 0 0 
0 0 0 0 0 0 0 0 0 
0 0 0 0 0 0 0 0 0 
0 0 0 0 0 0 0 0 0 
0 0 0 0 0 0 0 0 0 
0 0 0 0 0 0 0 0 0 
0 0 0 0 0 0 0 0 0 
0 0 0 0 0 0 0 0 0 
0 0 0 0 0 0 0 0 0 
0 0 0 0 0 0 0 0 0 
0 0 0 0 0 0 0 0 0 
0 0 0 0 0 0 0 0 0 
0 0 0 0 0 0 0 0 0 
0 0 0 0 0 0 0 0 0 
0 0 0 0 0 0 0 0 0 
0 0 0 0 0 0 0 0 0 
0 0 0 0 0 0 0 0 0 
0 0 0 0 0 0 0 0 0 
0 0 0 0 0 0 0 0 0 
0 0 0 0 0 0 0 0 0 
0 0 0 0 0 0 0 0 0 
0 0 0 0 0 0 0 0 0 
0 0 0 0 0 0 0 0 0 
0 0 0 0 0 0 0 0 0 
0 0 0 0 0 0 0 0 0 
0 0 0 0 0 0 0 0 0 
0 0 0 0 0 0 0 0 0 
0 0 0 0 0 0 0 0 0 
0 0 0 0 0 0 0 0 0 
0 0 0 0 0 0 0 0 0 
0 0 0 0 0 0 0 0 0 
0 0 0 0 0 0 0 0 0 
0 0 0 0 0 0 0 0 0 
0 0 0 0 0 0 0 0 0 
0 0 0 0 0 0 0 0 0 
0 0 0 0 0 0 0 0 0 
0 0 0 0 0 0 0 0 0 
0 0 0 0 0 0 0 0 0 
0 0 0 0 0 0 0 0 0 
0 0 0 0 0 0 0 0 0 
0 0 0 0 0 0 0 0 0 
0 0 0 0 0 0 0 0 0 
0 0 0 0 0 0 0 0 0 
0 0 0 0 0 0 0 0 0 
0 0 0 0 0 0 0 0 0 
0 0 0 0 0 0 0 0 0 
0 0 0 0 0 0 0 0 0 
0 0 0 0 0 0 0 0 0 
0 0 0 0 0 0 0 0 0 
0 0 0 0 0 0 0 0 0 
0 0 0 0 0 0 0 0 0 
0 0 0 0 0 0 0 0 0 
0 0 0 0 0 0 0 0 0 
0 0 0 0 0 0 0 0 0 
0 0 0 0 0 0 0 0 0 
0 0 0 0 0 0 0 0 0 
0 0 0 0 0 0 0 0 0 
0 0 0 0 0 0 0 0 0 
0 0 0 0 0 0 0 0 0 
0 0 0 0 0 0 0 0 0 
0 0 0 0 0 0 0 0 0 
0 0 0 0 0 0 0 0 0 
0 0 0 0 0 0 0 0 0 
0 0 0 0 0 0 0 0 0 
0 0 0 0 0 0 0 0 0 
0 0 0 0 0 0 0 0 0 
0 0 0 0 0 0 0 0 0 
0 0 0 0 0 0 0 0 0 
0 0 0 0 0 0 0 0 0 
0 0 0 0 0 0 0 0 0 
0 0 0 0 0 0 0 0 0 
0 0 0 0 0 0 0 0 0 
0 0 0 0 0 0 0 0 0 
0 0 0 0 0 0 0 0 0 
0 0 0 0 0 0 0 0 0 
0 0 0 0 0 0 0 0 0 
0 0 0 0 0 0 0 0 0 
0 0 0 0 0 0 0 0 0 
0 0 0 0 0 0 0 0 0 
0 0 0 0 0 0 0 0 0 
0 0 0 0 0 0 0 0 0 
0 0 0 0 0 0 0 0 0 
0 0 0 0 0 0 0 0 0 
0 0 0 0 0 0 0 0 0 
0 0 0 0 0 0 0 0 0 
0 0 0 0 0 0 0 0 0 
0 0 0 0 0 0 0 0 0 
0 0 0 0 0 0 0 0 0 
0 0 0 0 0 0 0 0 0 
0 0 0 0 0 0 0 0 0 
0 0 0 0 0 0 0 0 0 
0 0 0 0 0 0 0 0 0 
0 0 0 0 0 0 0 0 0 
0 0 0 0 0 0 0 0 0 
0 0 0 0 0 0 0 0 0 
0 0 0 0 0 0 0 0 0 
0 0 0 0 0 0 0 0 0 
0 0 0 0 0 0 0 0 0 
0 0 0 0 0 0 0 0 0 
0 0 0 0 0 0 0 0 0 
0 0 0 0 0 0 0 0 0 
0 0 0 0 0 0 0 0 0 
0 0 0 0 0 0 0 0 0 
0 0 0 0 0 0 0 0 0 
0 0 0 0 0 0 0 0 0 
0 0 0 0 0 0 0 0 0 
0 0 0 0 0 0 0 0 0 
0 0 0 0 0 0 0 0 0 
0 0 0 0 0 0 0 0 0 
0 0 0 0 0 0 0 0 0 
0 0 0 0 0 0 0 0 0 
0 0 0 0 0 0 0 0 0 
0 0 0 0 0 0 0 0 0 
0 0 0 0 0 0 0 0 0 
0 0 0 0 0 0 0 0 0 
0 0 0 0 0 0 0 0 0 
0 0 0 0 0 0 0 0 0 
0 0 0 0 0 0 0 0 0 
0 0 0 0 0 0 0 0 0 
0 0 0 0 0 0 0 0 0 
0 0 0 0 0 0 0 0 0 
0 0 0 0 0 0 0 0 0 
0 0 0 0 0 0 0 0 0 
0 0 0 0 0 0 0 0 0 
0 0 0 0 0 0 0 0 0 
0 0 0 0 0 0 0 0 0 
0 0 0 0 0 0 0 0 0 
0 0 0 0 0 0 0 0 0 
0 0 0 0 0 0 0 0 0 
0 0 0 0 0 0 0 0 0 
0 0 0 0 0 0 0 0 0 
0 0 0 0 0 0 0 0 0 
0 0 0 0 0 0 0 0 0 
0 0 0 0 0 0 0 0 0 
0 0 0 0 0 0 0 0 0 
0 0 0 0 0 0 0 0 0 
0 0 0 0 0 0 0 0 0 
0 0 0 0 0 0 0 0 0 
0 0 0 0 0 0 0 0 0 
0 0 0 0 0 0 0 0 0 
0 0 0 0 0 0 0 0 0 
0 0 0 0 0 0 0 0 0 
0 0 0 0 0 0 0 0 0 
0 0 0 0 0 0 0 0 0 
0 0 0 0 0 0 0 0 0 
0 0 0 0 0 0 0 0 0 
0 0 0 0 0 0 0 0 0 
0 0 0 0 0 0 0 0 0 
0 0 0 0 0 0 0 0 0 
0 0 0 0 0 0 0 0 0 
0 0 0 0 0 0 0 0 0 
0 0 0 0 0 0 0 0 0 
0 0 0 0 0 0 0 0 0 
0 0 0 0 0 0 0 0 0 
0 0 0 0 0 0 0 0 0 
0 0 0 0 0 0 0 0 0 
0 0 0 0 0 0 0 0 0 
0 0 0 0 0 0 0 0 0 
0 0 0 0 0 0 0 0 0 
0 0 0 0 0 0 0 0 0 
0 0 0 0 0 0 0 0 0 
0 0 0 0 0 0 0 0 0 
0 0 0 0 0 0 0 0 0 
0 0 0 0 0 0 0 0 0 
0 0 0 0 0 0 0 0 0 
0 0 0 0 0 0 0 0 0 
0 0 0 0 0 0 0 0 0 
0 0 0 0 0 0 0 0 0 
0 0 0 0 0 0 0 0 0 
0 0 0 0 0 0 0 0 0 
0 0 0 0 0 0 0 0 0 
0 0 0 0 0 0 0 0 0 
0 0 0 0 0 0 0 0 0 
0 0 0 0 0 0 0 0 0 
0 0 0 0 0 0 0 0 0 
0 0 0 0 0 0 0 0 0 
0 0 0 0 0 0 0 0 0 
0 0 0 0 0 0 0 0 0 
0 0 0 0 0 0 0 0 0 
0 0 0 0 0 0 0 0 0 
0 0 0 0 0 0 0 0 0 
0 0 0 0 0 0 0 0 0 
0 0 0 0 0 0 0 0 0 
0 0 0 0 0 0 0 0 0 
0 0 0 0 0 0 0 0 0 
0 0 0 0 0 0 0 0 0 
0 0 0 0 0 0 0 0 0 
0 0 0 0 0 0 0 0 0 
0 0 0 0 0 0 0 0 0 
0 0 0 0 0 0 0 0 0 
0 0 0 0 0 0 0 0 0 
0 0 0 0 0 0 0 0 0 
0 0 0 0 0 0 0 0 0 
0 0 0 0 0 0 0 0 0 
0 0 0 0 0 0 0 0 0 
0 0 0 0 0 0 0 0 0 
0 0 0 0 0 0 0 0 0 
0 0 0 0 0 0 0 0 0 
0 0 0 0 0 0 0 0 0 
0 0 0 0 0 0 0 0 0 
0 0 0 0 0 0 0 0 0 
0 0 0 0 0 0 0 0 0 
0 0 0 0 0 0 0 0 0 
0 0 0 0 0 0 0 0 0 
0 0 0 0 0 0 0 0 0 
0 0 0 0 0 0 0 0 0 
0 0 0 0 0 0 0 0 0 
0 0 0 0 0 0 0 0 0 
0 0 0 0 0 0 0 0 0 
0 0 0 0 0 0 0 0 0 
0 0 0 0 0 0 0 0 0 
0 0 0 0 0 0 0 0 0 
0 0 0 0 0 0 0 0 0 
0 0 0 0 0 0 0 0 0 
0 0 0 0 0 0 0 0 0 
0 0 0 0 0 0 0 0 0 
0 0 0 0 0 0 0 0 0 
0 0 0 0 0 0 0 0 0 
0 0 0 0 0 0 0 0 0 
0 0 0 0 0 0 0 0 0 
0 0 0 0 0 0 0 0 0 
0 0 0 0 0 0 0 0 0 
0 0 0 0 0 0 0 0 0 
0 0 0 0 0 0 0 0 0 
0 0 0 0 0 0 0 0 0 
0 0 0 0 0 0 0 0 0 
0 0 0 0 0 0 0 0 0 
0 0 0 0 0 0 0 0 0 
0 0 0 0 0 0 0 0 0 
0 0 0 0 0 0 0 0 0 
0 0 0 0 0 0 0 0 0 
0 0 0 0 0 0 0 0 0 
0 0 0 0 0 0 0 0 0 
0 0 0 0 0 0 0 0 0 
0 0 0 0 0 0 0 0 0 
0 0 0 0 0 0 0 0 0 
0 0 0 0 0 0 0 0 0 
0 0 0 0 0 0 0 0 0 
0 0 0 0 0 0 0 0 0 
0 0 0 0 0 0 0 0 0 
0 0 0 0 0 0 0 0 0 
0 0 0 0 0 0 0 0 0 
0 0 0 0 0 0 0 0 0 
0 0 0 0 0 0 0 0 0 
0 0 0 0 0 0 0 0 0 
0 0 0 0 0 0 0 0 0 
0 0 0 0 0 0 0 0 0 
0 0 0 0 0 0 0 0 0 
0 0 0 0 0 0 0 0 0 
0 0 0 0 0 0 0 0 0 
0 0 0 0 0 0 0 0 0 
0 0 0 0 0 0 
v 3 1457 double
-0.0045732150366 0.00083882554838 -0.025395399488 0.011712751963 -0.0037290385148 -0.0011384930739 -0.012594378813 0.13384238725 0.033202788831 