# vtk DataFile Version 5.1
Generated by LIGGGHTS
ASCII
DATASET POLYDATA
POINTS 722 float
-0.138126 0.0562662 -0.144589 -0.141674 0.0696153 -0.143961 -0.0999082 0.0951314 -0.143131 
-0.118434 0.107731 -0.143302 -0.0735609 0.104519 -0.142973 -0.0496168 0.157789 -0.143116 
-0.144291 0.0593517 -0.13515 -0.118045 0.0571284 -0.139902 -0.0737624 0.0581681 -0.138864 
-0.00754371 0.0667713 -0.138172 -0.02318 0.100586 -0.13489 -0.133956 0.0655308 -0.13304 
-0.0444901 0.0679223 -0.12941 -0.0744317 0.0813408 -0.132336 -0.0561568 0.0781939 -0.134904 
-0.00264442 0.0878985 -0.134372 -0.0106357 0.133382 -0.132401 -0.127336 0.195334 -0.131567 
-0.115309 0.0601361 -0.125873 -0.082445 0.0577025 -0.120629 -0.129426 0.0623768 -0.121661 
-0.137446 0.0812307 -0.12282 -0.0703921 0.152241 -0.125043 -0.140995 0.0567596 -0.117268 
-0.121489 0.0628242 -0.112364 -0.0368234 0.077093 -0.119626 -0.122239 0.0796961 -0.115631 
-0.0904853 0.0888143 -0.11762 -0.013552 0.0897998 -0.113453 -0.11109 0.109986 -0.113738 
-0.023517 0.154851 -0.112425 -0.0214637 0.0583887 -0.10643 -0.0319854 0.0695557 -0.109696 
-0.11434 0.0832068 -0.108482 -0.0815642 0.104959 -0.111217 -0.110205 0.124266 -0.110677 
-0.0834967 0.180904 -0.10966 -0.0624898 0.0705399 -0.0986162 -0.0466789 0.100075 -0.0967498 
-0.00695685 0.0721221 -0.0931875 -0.0651558 0.114951 -0.0947693 -0.0542266 0.0650569 -0.0890015 
-0.0552454 0.0919302 -0.0865994 -0.0689984 0.183706 -0.0869727 -0.0600827 0.068719 -0.0787993 
-0.0150671 0.0644952 -0.0758012 -0.131891 0.0757781 -0.0750839 -0.0426786 0.0874202 -0.0792936 
-0.080315 0.0741956 -0.0759343 -0.0280472 0.0701208 -0.0711428 -0.0742765 0.0907404 -0.0749817 
-0.0423856 0.110368 -0.0664146 -0.0848825 0.185193 -0.0727564 -0.10579 0.0588478 -0.0652057 
-0.0390783 0.0573152 -0.066411 -0.115595 0.0659164 -0.0644194 -0.115455 0.142505 -0.0606509 
-0.0742396 0.0555969 -0.0473747 -0.0688695 0.0681994 -0.0503579 -0.00813221 0.0680502 -0.0455447 
-0.116087 0.0774075 -0.0478695 -0.144742 0.0925896 -0.0475383 -0.041794 0.0557324 -0.0437033 
-0.0493534 0.0829345 -0.0448816 -0.0281915 0.100706 -0.0447895 -0.0233522 0.164444 -0.0419589 
-0.113176 0.0564407 -0.0309805 -0.0975811 0.0781634 -0.0327612 -0.0348514 0.0900935 -0.03438 
-0.0106651 0.0861471 -0.0351116 -0.0919101 0.0933168 -0.0333097 -0.0237632 0.113206 -0.0346585 
-0.0121957 0.126472 -0.033886 -0.138215 0.139201 -0.0327792 -0.104349 0.193765 -0.0326997 
-0.0274566 0.0833898 -0.0269431 -0.13444 0.0642153 -0.0151451 -0.0610061 0.0675378 -0.0202649 
-0.0424459 0.0622084 -0.0162123 -0.0345277 0.0763379 -0.0221371 -0.00570371 0.0782515 -0.015663 
-0.142068 0.104335 -0.0209545 -0.0668256 0.106882 -0.0169554 -0.12264 0.117874 -0.0131181 
-0.0488331 0.18718 -0.019761 -0.111632 0.0579317 -0.0122123 -0.120936 0.0617763 -0.0080653 
-0.0710974 0.0681372 -0.0146836 -0.0181056 0.100173 -0.0117906 -0.134701 0.112393 -0.0116689 
-0.0381847 0.145946 -0.0109946 -0.137462 0.0564672 -0.00269552 -0.082115 0.0584234 -0.00191962 
-0.0452532 0.059001 -0.00327683 -0.108023 0.0636 -0.00353017 -0.046943 0.194131 -0.00115547 
-0.119511 0.0665798 0.00632423 -0.110334 0.0712497 0.00352778 -0.102192 0.0596473 0.0100691 
-0.0427266 0.0558308 0.0135386 -0.143727 0.0634302 0.0139033 -0.133431 0.0637218 0.0105672 
-0.072097 0.103018 0.0141877 -0.130694 0.0730222 0.0157445 -0.027382 0.0697979 0.0179923 
-0.110652 0.0777512 0.0189094 -0.0947385 0.112747 0.020019 -0.125652 0.0553275 0.0242931 
-0.11934 0.0719281 0.0246523 -0.038285 0.0744332 0.0248263 -0.0240083 0.0715975 0.0287505 
-0.121052 0.110072 0.0273573 -0.0853385 0.199127 0.0260912 -0.0450906 0.0581153 0.0363817 
-0.0205427 0.0589889 0.0304006 -0.00355772 0.0549959 0.0346989 -0.0862545 0.072078 0.0310873 
-0.0506639 0.0753248 0.0325475 -0.128717 0.0873518 0.0358474 -0.0427707 0.174982 0.0364008 
-0.085339 0.199127 0.0224111 -0.103804 0.065633 0.0390234 -0.0640763 0.064286 0.0438883 
-0.132748 0.133899 0.0435546 -0.0760989 0.0632915 0.0479726 -0.136832 0.07071 0.0463992 
-0.00510224 0.0987449 0.0506655 -0.0899898 0.186304 0.0478703 -0.0864828 0.0570385 0.0595021 
-0.131078 0.0617004 0.05487 -0.0348613 0.0618335 0.0548393 -0.139198 0.0695273 0.0584871 
-0.110224 0.171317 0.0596872 -0.131226 0.0595824 0.0663216 -0.0152488 0.0735454 0.0605101 
-0.0726445 0.122098 0.0666668 -0.0026007 0.0583669 0.0719502 -0.11212 0.0985942 0.0743719 
-0.0309791 0.11975 0.0713443 -0.132942 0.0618794 0.0777485 -0.0388037 0.0780764 0.0777384 
-0.118193 0.0894463 0.0767489 -0.00392389 0.089256 0.0801692 -0.0808088 0.163398 0.0769589 
-0.048436 0.0659911 0.0835454 -0.0139405 0.0619247 0.0851634 -0.130784 0.106954 0.0875142 
-0.0418563 0.190512 0.0867044 -0.111756 0.197576 0.0892428 -0.0169162 0.197115 0.0973861 
-0.029863 0.116146 0.100265 -0.0575077 0.13028 0.104804 -0.120805 0.18755 0.0988105 
-0.0306299 0.196507 0.0994996 -0.0308287 0.0690113 0.110345 -0.0890186 0.199126 0.0260917 
-0.0890191 0.199126 0.0224116 -0.0269476 0.0597097 0.115878 -0.0628426 0.12512 0.115619 
-0.109689 0.188617 0.113557 -0.0413386 0.198531 0.115587 -0.0474094 0.1654 0.14471 
-0.0878715 0.10226 0.143804 -0.0483473 0.148988 0.123986 -0.0503113 0.181804 0.122949 
-0.13193 0.19315 0.121574 -0.0743382 0.188706 0.127324 -0.0813243 0.122736 0.132384 
-0.0787438 0.156825 0.13442 -0.119309 0.170791 0.130438 -0.0863459 0.168967 0.129769 
-0.128185 0.0693278 0.140873 -0.0931738 0.0884584 0.141744 -0.132566 0.188061 0.139936 
-0.101749 0.0572081 0.142949 -0.00555186 0.0694437 0.144897 -0.0404305 0.209084 -0.105829 
-0.0349545 0.209084 -0.105829 -0.0404305 0.219572 -0.105829 -0.0349545 0.219572 -0.105829 
-0.113584 0.254892 -0.110516 -0.102122 0.254903 -0.110516 -0.1136 0.290069 -0.110602 
-0.102137 0.290079 -0.110602 -0.0404305 0.209084 -0.100353 -0.0349545 0.209084 -0.100353 
-0.0404305 0.219572 -0.100353 -0.0349545 0.219572 -0.100353 -0.113584 0.254952 -0.0990532 
-0.102122 0.254962 -0.0990533 -0.1136 0.290128 -0.0991397 -0.102137 0.290138 -0.0991396 
-0.0884829 0.210556 -0.0911471 -0.0840046 0.210556 -0.0911471 -0.0840046 0.204182 -0.0911471 
-0.0884829 0.204182 -0.0911471 -0.0884829 0.210556 -0.0866688 -0.0840046 0.210556 -0.0866688 
-0.0884829 0.204182 -0.0866688 -0.0840046 0.204182 -0.0866688 -0.055086 0.221846 -0.0881399 
-0.0470159 0.221846 -0.0881399 -0.055086 0.243034 -0.0881436 -0.0470159 0.243034 -0.0881436 
-0.0614503 0.205675 -0.0756057 -0.0663276 0.205671 -0.0756014 -0.0614552 0.213694 -0.0756261 
-0.0663325 0.21369 -0.0756218 -0.055086 0.22185 -0.0800695 -0.0470159 0.22185 -0.0800695 
-0.055086 0.243035 -0.0800738 -0.0470159 0.243035 -0.0800738 -0.061446 0.205689 -0.0707283 
-0.0663233 0.205685 -0.070724 -0.0614509 0.213708 -0.0707488 -0.0663282 0.213705 -0.0707445 
-0.119035 0.219354 -0.0672847 -0.119094 0.21935 -0.0747561 -0.111563 0.219356 -0.0673438 
-0.111623 0.219352 -0.0748152 -0.119037 0.238072 -0.0672901 -0.119096 0.238068 -0.0747616 
-0.111566 0.238073 -0.0673492 -0.111625 0.23807 -0.0748207 -0.0228388 0.220617 -0.0676452 
-0.022869 0.220645 -0.0599742 -0.0152896 0.220696 -0.0601215 -0.0151678 0.220581 -0.067615 
-0.0227852 0.240158 -0.0676849 -0.0228154 0.240185 -0.0600139 -0.0151142 0.240121 -0.0676547 
-0.0151444 0.240148 -0.0599837 -0.0157741 0.216863 -0.0567157 -0.00879338 0.216952 -0.0568727 
-0.057297 0.225884 -0.0538488 -0.0486283 0.225884 -0.0538488 -0.0158675 0.234022 -0.0569027 
-0.00879518 0.234024 -0.0568822 -0.057297 0.24954 -0.0538488 -0.0486283 0.24954 -0.0538488 
-0.0855219 0.210537 -0.0465537 -0.0855219 0.210535 -0.0524289 -0.0796468 0.210537 -0.0465537 
-0.0796468 0.210535 -0.0524289 -0.0158862 0.216957 -0.0498208 -0.00881382 0.216958 -0.0498003 
-0.0855219 0.22267 -0.052431 -0.0855219 0.22267 -0.046556 -0.0796468 0.22267 -0.046556 
-0.0796468 0.22267 -0.052431 -0.057297 0.225884 -0.04518 -0.0486283 0.225884 -0.04518 
-0.015888 0.234029 -0.0498303 -0.00881562 0.23403 -0.0498098 -0.057297 0.24954 -0.04518 
-0.0486283 0.24954 -0.04518 -0.130221 0.208093 -0.0334333 -0.124944 0.208093 -0.0334333 
-0.130221 0.217758 -0.0334332 -0.124944 0.217758 -0.0334332 -0.130221 0.208092 -0.0281568 
-0.124944 0.208092 -0.0281568 -0.130221 0.217758 -0.0281567 -0.124944 0.217758 -0.0281567 
-0.0209052 0.219208 -0.0162535 -0.0137154 0.219169 -0.0152391 -0.0211395 0.237895 -0.0155043 
-0.0137312 0.237887 -0.0152467 -0.0189314 0.219525 -0.00965395 -0.0137364 0.219178 -0.0077899 
-0.0187415 0.238373 -0.0103671 -0.0138157 0.237892 -0.00777534 -0.0238606 0.218478 -0.00516976 
-0.0294203 0.218815 -0.0069218 -0.029183 0.236767 -0.00700846 -0.024305 0.236261 -0.00437125 
-0.0291842 0.218828 0.000464269 -0.0220138 0.218774 0.00129562 -0.029183 0.236769 0.000463002 
-0.0217268 0.236762 0.000506125 -0.0692153 0.213141 0.0346356 -0.0629411 0.213141 0.0346356 
-0.0692153 0.226921 0.0346356 -0.0629411 0.226921 0.0346356 -0.00765858 0.280819 0.0309039 
-0.0193194 0.2817 0.0307461 -0.0184966 0.29336 0.0313409 -0.00683572 0.292479 0.0314988 
-0.0692153 0.213141 0.0409097 -0.0629411 0.213141 0.0409097 -0.0692153 0.226921 0.0409097 
-0.0629411 0.226921 0.0409097 -0.0195012 0.280973 0.0424072 -0.00784044 0.280092 0.042565 
-0.0186785 0.292634 0.0430019 -0.0070176 0.291753 0.0431598 -0.101299 0.211208 0.0516323 
-0.101299 0.211208 0.0469545 -0.1013 0.204191 0.0516326 -0.101299 0.20419 0.0469548 
-0.0966215 0.211208 0.0516331 -0.0966207 0.211208 0.0469553 -0.0966219 0.20419 0.0516334 
-0.0966212 0.20419 0.0469556 -0.0426792 0.20644 0.0565125 -0.0376023 0.20644 0.0565125 
-0.110204 0.216165 0.0586945 -0.103331 0.216165 0.0586945 -0.0376023 0.215018 0.0565125 
-0.0426792 0.215018 0.0565125 -0.0556877 0.22289 0.0570397 -0.047418 0.22289 0.0570404 
-0.110204 0.232414 0.0586945 -0.103331 0.232414 0.0586945 -0.0556877 0.243951 0.0570569 
-0.047418 0.243951 0.0570576 -0.0998749 0.287912 0.0542854 -0.0849894 0.287914 0.0542856 
-0.0998784 0.342955 0.0542938 -0.084993 0.342957 0.0542939 -0.0376023 0.20644 0.0615894 
-0.0426792 0.20644 0.0615894 -0.110204 0.216165 0.0655674 -0.103331 0.216165 0.0655674 
[...]
POINT_DATA 722
FIELD FieldData 8
id 1 722 int
3781 3801 3994 3970 3744 3884 3894 3745 2648 
3730 3937 2739 2901 3917 3749 3952 3726 3907 
2755 3931 3785 3823 3802 3024 3586 3296 3023 
3981 3773 3359 3959 3844 3852 3908 3180 3987 
3403 3685 3903 3943 3830 3960 3808 3976 3757 
3966 3716 3242 3738 3877 3932 3873 3949 3360 
3731 3727 3243 3918 3814 2962 3135 3896 3961 
3758 3809 3519 3853 2961 2824 2749 3939 3244 
3774 3951 3878 3995 3297 3786 3919 3787 2482 
3920 3686 2823 3895 3885 3182 3938 3879 3815 
3953 3925 3746 3975 3971 3845 2902 3831 3720 
3962 3688 3982 3996 3825 3782 3950 3988 3836 
3803 3940 3587 3909 4367 3747 3847 3810 3775 
3906 3955 3989 4366 3631 3788 3728 3911 3854 
3846 2826 3768 3760 3406 3864 3859 3863 3461 
3761 3871 3910 3765 3721 3954 3941 3325 3904 
3136 2550 3776 3898 3865 3817 2509 3997 3886 
2649 3754 4363 4362 3977 3963 3933 3866 3690 
3956 3874 3984 3887 3880 3632 3837 3921 3897 
3729 3875 3722 3689 3848 4226 4230 4228 4232 
4018 4022 4020 4024 4227 4231 4229 4225 4019 
4023 4021 4017 4332 4336 4334 4330 4333 4329 
4331 4335 4042 4046 4044 4048 4286 4282 4288 
4284 4043 4047 4045 4041 4287 4283 4281 4285 
4085 4084 4089 4088 4087 4086 4091 4090 4058 
4059 4063 4062 4060 4061 4064 4057 4138 4142 
4026 4030 4140 4144 4028 4032 4195 4194 4199 
4198 4139 4143 4196 4197 4193 4200 4027 4031 
4141 4137 4029 4025 4258 4262 4260 4264 4259 
4263 4261 4257 4092 4096 4094 4074 4093 4075 
4095 4073 4080 4076 4078 4082 4077 4081 4079 
4083 4162 4166 4164 4168 4014 4010 4012 4016 
4163 4167 4165 4161 4011 4015 4013 4009 4317 
4316 4315 4314 4313 4320 4319 4318 4266 4270 
4146 4150 4272 4268 4034 4038 4148 4152 4036 
4040 4002 4006 4004 4008 4271 4267 4147 4151 
4265 4269 4115 4035 4039 4149 4145 4117 4068 
4072 4037 4033 4154 4158 4116 4120 4119 4066 
4067 4071 4070 4156 4160 4118 4122 4121 4069 
4065 4003 4007 4005 4001 4234 4238 4214 4210 
4236 4240 4155 4159 4123 4127 4216 4212 4157 
4153 4125 4114 4235 4239 4215 4211 4237 4233 
4124 4128 4209 4213 4126 4113 4290 4294 4292 
4296 4179 4178 4183 4182 4181 4180 4184 4177 
4291 4295 4340 4344 4293 4289 4341 4337 4050 
4052 4051 4053 4345 4357 4356 4348 4349 4352 
4361 4368 4355 4338 4365 4364 4342 4339 4350 
4351 4354 4347 4346 4343 3899 3849 3161 3927 
3876 3905 3942 3818 3934 3789 3811 3440 3900 
3957 3972 3964 3838 3762 3860 3784 3741 3717 
3978 3965 2927 3945 3922 3985 3025 3944 3405 
3755 3867 2989 3858 3796 3888 2591 3856 2481 
3778 3711 2867 3666 3839 3868 3869 3819 3441 
3826 3737 3665 3712 3805 3766 3812 3208 3770 
3162 3806 3840 3881 3691 3386 3832 2748 3889 
2483 3850 3797 3891 3262 3841 3827 3723 3793 
3324 3851 3777 3614 2751 3973 3929 3928 3842 
3771 2750 3946 3890 3991 3990 3714 3914 3763 
3999 3915 3385 3442 3882 3912 3779 2690 3791 
3870 3613 3913 3764 3923 3732 3263 3901 3742 
3718 3820 2790 3828 3668 3084 2963 3692 2484 
3979 3974 3799 3986 3916 3790 3835 3998 3667 
3993 3924 2928 3947 3750 3518 3739 3715 3719 
3892 3821 3751 4000 3948 3298 3862 2752 3861 
3926 3772 3833 3857 3443 3958 3843 3968 3798 
3829 3326 3733 3983 3780 3822 3935 3872 3800 
3992 3930 2868 3725 3980 3792 2753 3936 3967 
3743 3883 3444 3969 3693 3902 3893 4298 4302 
4300 4304 4299 4303 4301 4297 4202 4206 4204 
4208 4203 4207 4205 4201 4324 4322 4328 4326 
4307 4306 4311 4310 4309 4308 4305 4312 4325 
4323 4321 4327 4186 4190 4188 4192 4244 4243 
4248 4247 4187 4191 4246 4245 4250 4249 4189 
4185 4099 4103 4101 4105 4100 4104 4102 4106 
4218 4222 4252 4251 4256 4255 4254 4253 4241 
4242 4220 4224 4130 4134 4132 4136 4219 4223 
4170 4174 4221 4217 4131 4135 4172 4176 4133 
4129 4171 4175 4054 4173 4169 4056 4274 4278 
4276 4280 4107 4111 4109 4098 4275 4279 4277 
4273 4055 4108 4112 4110 4097 4049 4353 4360 
4358 4359 
type 1 722 int
2 2 2 2 2 2 2 2 2 
2 2 2 2 2 2 2 2 2 
2 2 2 2 2 2 2 2 2 
2 2 2 2 2 2 2 2 2 
2 2 2 2 2 2 2 2 2 
2 2 2 2 2 2 2 2 2 
2 2 2 2 2 2 2 2 2 
2 2 2 2 2 2 2 2 2 
2 2 2 2 2 2 2 2 2 
2 2 2 2 2 2 2 2 2 
2 2 2 2 2 2 2 2 2 
2 2 2 2 2 2 2 2 2 
2 2 2 2 2 2 2 2 2 
2 2 2 2 2 2 2 2 2 
2 2 2 2 2 2 2 2 2 
2 2 2 2 2 2 2 2 2 
2 2 2 2 2 2 2 2 2 
2 2 2 2 2 2 2 2 2 
2 2 2 2 2 2 2 2 2 
2 2 2 2 2 2 2 2 2 
2 2 2 2 2 2 2 2 2 
2 2 2 2 2 2 2 2 2 
2 2 2 2 2 2 2 2 2 
2 2 2 2 2 2 2 2 2 
2 2 2 2 2 2 2 2 2 
2 2 2 2 2 2 2 2 2 
2 2 2 2 2 2 2 2 2 
2 2 2 2 2 2 2 2 2 
2 2 2 2 2 2 2 2 2 
2 2 2 2 2 2 2 2 2 
2 2 2 2 2 2 2 2 2 
2 2 2 2 2 2 2 2 2 
2 2 2 2 2 2 2 2 2 
2 2 2 2 2 2 2 2 2 
2 2 2 2 2 2 2 2 2 
2 2 2 2 2 2 2 2 2 
2 2 2 2 2 2 2 2 2 
2 2 2 2 2 2 2 2 2 
2 2 2 2 2 2 2 2 2 
2 2 2 2 2 2 2 2 2 
2 2 2 2 2 2 2 2 2 
2 2 2 2 2 2 2 2 2 
2 2 2 2 2 2 2 2 2 
2 2 2 2 2 2 2 2 2 
2 2 2 2 2 2 2 2 2 
2 2 2 2 2 2 2 2 2 
2 2 2 2 2 2 2 2 2 
2 2 2 2 2 2 2 2 2 
2 2 2 2 2 2 2 2 2 
2 2 2 2 2 2 2 2 2 
2 2 2 2 2 2 2 2 2 
2 2 2 2 2 2 2 2 2 
2 2 2 2 2 2 2 2 2 
2 2 2 2 2 2 2 2 2 
2 2 2 2 2 2 2 2 2 
2 2 2 2 2 2 2 2 2 
2 2 2 2 2 2 2 2 2 
2 2 2 2 2 2 2 2 2 
2 2 2 2 2 2 2 2 2 
2 2 2 2 2 2 2 2 2 
2 2 2 2 2 2 2 2 2 
2 2 2 2 2 2 2 2 2 
2 2 2 2 2 2 2 2 2 
2 2 2 2 2 2 2 2 2 
2 2 2 2 2 2 2 2 2 
2 2 2 2 2 2 2 2 2 
2 2 2 2 2 2 2 2 2 
2 2 2 2 2 2 2 2 2 
2 2 2 2 2 2 2 2 2 
2 2 2 2 2 2 2 2 2 
2 2 2 2 2 2 2 2 2 
2 2 2 2 2 2 2 2 2 
2 2 2 2 2 2 2 2 2 
2 2 2 2 2 2 2 2 2 
2 2 2 2 2 2 2 2 2 
2 2 2 2 2 2 2 2 2 
2 2 2 2 2 2 2 2 2 
2 2 2 2 2 2 2 2 2 
2 2 2 2 2 2 2 2 2 
2 2 2 2 2 2 2 2 2 
2 2 
i 3 722 int
0 0 0 0 0 0 0 0 0 
0 0 0 0 0 0 0 0 0 
0 0 0 0 0 0 0 0 0 
0 0 0 0 0 0 0 0 0 
0 0 0 0 0 0 0 0 0 
0 0 0 0 0 0 0 0 0 
0 0 0 0 0 0 0 0 0 
0 0 0 0 0 0 0 0 0 
0 0 0 0 0 0 0 0 0 
0 0 0 0 0 0 0 0 0 
0 0 0 0 0 0 0 0 0 
0 0 0 0 0 0 0 0 0 
0 0 0 0 0 0 0 0 0 
0 0 0 0 0 0 0 0 0 
0 0 0 0 0 0 0 0 0 
0 0 0 0 0 0 0 0 0 
0 0 0 0 0 0 0 0 0 
0 0 0 0 0 0 0 0 0 
0 0 0 0 0 0 0 0 0 
0 0 0 0 0 0 0 0 0 
0 0 0 0 0 0 0 0 0 
0 0 0 0 0 0 0 0 0 
0 0 0 0 0 0 0 0 0 
0 0 0 0 0 0 0 0 0 
0 0 0 0 0 0 0 0 0 
0 0 0 0 0 0 0 0 0 
0 0 0 0 0 0 0 0 0 
0 0 0 0 0 0 0 0 0 
0 0 0 0 0 0 0 0 0 
0 0 0 0 0 0 0 0 0 
0 0 0 0 0 0 0 0 0 
0 0 0 0 0 0 0 0 0 
0 0 0 0 0 0 0 0 0 
0 0 0 0 0 0 0 0 0 
0 0 0 0 0 0 0 0 0 
0 0 0 0 0 0 0 0 0 
0 0 0 0 0 0 0 0 0 
0 0 0 0 0 0 0 0 0 
0 0 0 0 0 0 0 0 0 
0 0 0 0 0 0 0 0 0 
0 0 0 0 0 0 0 0 0 
0 0 0 0 0 0 0 0 0 
0 0 0 0 0 0 0 0 0 
0 0 0 0 0 0 0 0 0 
0 0 0 0 0 0 0 0 0 
0 0 0 0 0 0 0 0 0 
0 0 0 0 0 0 0 0 0 
0 0 0 0 0 0 0 0 0 
0 0 0 0 0 0 0 0 0 
0 0 0 0 0 0 0 0 0 
0 0 0 0 0 0 0 0 0 
0 0 0 0 0 0 0 0 0 
0 0 0 0 0 0 0 0 0 
0 0 0 0 0 0 0 0 0 
0 0 0 0 0 0 0 0 0 
0 0 0 0 0 0 0 0 0 
0 0 0 0 0 0 0 0 0 
0 0 0 0 0 0 0 0 0 
0 0 0 0 0 0 0 0 0 
0 0 0 0 0 0 0 0 0 
0 0 0 0 0 0 0 0 0 
0 0 0 0 0 0 0 0 0 
0 0 0 0 0 0 0 0 0 
0 0 0 0 0 0 0 0 0 
0 0 0 0 0 0 0 0 0 
0 0 0 0 0 0 0 0 0 
0 0 0 0 0 0 0 0 0 
0 0 0 0 0 0 0 0 0 
0 0 0 0 0 0 0 0 0 
0 0 0 0 0 0 0 0 0 
0 0 0 0 0 0 0 0 0 
0 0 0 0 0 0 0 0 0 
0 0 0 0 0 0 0 0 0 
0 0 0 0 0 0 0 0 0 
0 0 0 0 0 0 0 0 0 
0 0 0 0 0 0 0 0 0 
0 0 0 0 0 0 0 0 0 
0 0 0 0 0 0 0 0 0 
0 0 0 0 0 0 0 0 0 
0 0 0 0 0 0 0 0 0 
0 0 0 0 0 0 0 0 0 
0 0 0 0 0 0 0 0 0 
0 0 0 0 0 0 0 0 0 
0 0 0 0 0 0 0 0 0 
0 0 0 0 0 0 0 0 0 
0 0 0 0 0 0 0 0 0 
0 0 0 0 0 0 0 0 0 
0 0 0 0 0 0 0 0 0 
0 0 0 0 0 0 0 0 0 
0 0 0 0 0 0 0 0 0 
0 0 0 0 0 0 0 0 0 
0 0 0 0 0 0 0 0 0 
0 0 0 0 0 0 0 0 0 
0 0 0 0 0 0 0 0 0 
0 0 0 0 0 0 0 0 0 
0 0 0 0 0 0 0 0 0 
0 0 0 0 0 0 0 0 0 
0 0 0 0 0 0 0 0 0 
0 0 0 0 0 0 0 0 0 
0 0 0 0 0 0 0 0 0 
0 0 0 0 0 0 0 0 0 
0 0 0 0 0 0 0 0 0 
0 0 0 0 0 0 0 0 0 
0 0 0 0 0 0 0 0 0 
0 0 0 0 0 0 0 0 0 
0 0 0 0 0 0 0 0 0 
0 0 0 0 0 0 0 0 0 
0 0 0 0 0 0 0 0 0 
0 0 0 0 0 0 0 0 0 
0 0 0 0 0 0 0 0 0 
0 0 0 0 0 0 0 0 0 
0 0 0 0 0 0 0 0 0 
0 0 0 0 0 0 0 0 0 
0 0 0 0 0 0 0 0 0 
0 0 0 0 0 0 0 0 0 
0 0 0 0 0 0 0 0 0 
0 0 0 0 0 0 0 0 0 
0 0 0 0 0 0 0 0 0 
0 0 0 0 0 0 0 0 0 
0 0 0 0 0 0 0 0 0 
0 0 0 0 0 0 0 0 0 
0 0 0 0 0 0 0 0 0 
0 0 0 0 0 0 0 0 0 
0 0 0 0 0 0 0 0 0 
0 0 0 0 0 0 0 0 0 
0 0 0 0 0 0 0 0 0 
0 0 0 0 0 0 0 0 0 
0 0 0 0 0 0 0 0 0 
0 0 0 0 0 0 0 0 0 
0 0 0 0 0 0 0 0 0 
0 0 0 0 0 0 0 0 0 
0 0 0 0 0 0 0 0 0 
0 0 0 0 0 0 0 0 0 
0 0 0 0 0 0 0 0 0 
0 0 0 0 0 0 0 0 0 
0 0 0 0 0 0 0 0 0 
0 0 0 0 0 0 0 0 0 
0 0 0 0 0 0 0 0 0 
0 0 0 0 0 0 0 0 0 
0 0 0 0 0 0 0 0 0 
0 0 0 0 0 0 0 0 0 
0 0 0 0 0 0 0 0 0 
0 0 0 0 0 0 0 0 0 
0 0 0 0 0 0 0 0 0 
0 0 0 0 0 0 0 0 0 
0 0 0 0 0 0 0 0 0 
0 0 0 0 0 0 0 0 0 
0 0 0 0 0 0 0 0 0 
0 0 0 0 0 0 0 0 0 
0 0 0 0 0 0 0 0 0 
0 0 0 0 0 0 0 0 0 
0 0 0 0 0 0 0 0 0 
0 0 0 0 0 0 0 0 0 
0 0 0 0 0 0 0 0 0 
0 0 0 0 0 0 0 0 0 
0 0 0 0 0 0 0 0 0 
0 0 0 0 0 0 0 0 0 
0 0 0 0 0 0 0 0 0 
0 0 0 0 0 0 0 0 0 
0 0 0 0 0 0 0 0 0 
0 0 0 0 0 0 0 0 0 
0 0 0 0 0 0 0 0 0 
0 0 0 0 0 0 0 0 0 
0 0 0 0 0 0 0 0 0 
0 0 0 0 0 0 0 0 0 
0 0 0 0 0 0 0 0 0 
0 0 0 0 0 0 0 0 0 
0 0 0 0 0 0 0 0 0 
0 0 0 0 0 0 0 0 0 
0 0 0 0 0 0 0 0 0 
0 0 0 0 0 0 0 0 0 
0 0 0 0 0 0 0 0 0 
0 0 0 0 0 0 0 0 0 
0 0 0 0 0 0 0 0 0 
0 0 0 0 0 0 0 0 0 
0 0 0 0 0 0 0 0 0 
0 0 0 0 0 0 0 0 0 
0 0 0 0 0 0 0 0 0 
0 0 0 0 0 0 0 0 0 
0 0 0 0 0 0 0 0 0 
0 0 0 0 0 0 0 0 0 
0 0 0 0 0 0 0 0 0 
0 0 0 0 0 0 0 0 0 
0 0 0 0 0 0 0 0 0 
0 0 0 0 0 0 0 0 0 
0 0 0 0 0 0 0 0 0 
0 0 0 0 0 0 0 0 0 
0 0 0 0 0 0 0 0 0 
0 0 0 0 0 0 0 0 0 
0 0 0 0 0 0 0 0 0 
0 0 0 0 0 0 0 0 0 
0 0 0 0 0 0 0 0 0 
0 0 0 0 0 0 0 0 0 
0 0 0 0 0 0 0 0 0 
0 0 0 0 0 0 0 0 0 
0 0 0 0 0 0 0 0 0 
0 0 0 0 0 0 0 0 0 
0 0 0 0 0 0 0 0 0 
0 0 0 0 0 0 0 0 0 
0 0 0 0 0 0 0 0 0 
0 0 0 0 0 0 0 0 0 
0 0 0 0 0 0 0 0 0 
0 0 0 0 0 0 0 0 0 
0 0 0 0 0 0 0 0 0 
0 0 0 0 0 0 0 0 0 
0 0 0 0 0 0 0 0 0 
0 0 0 0 0 0 0 0 0 
0 0 0 0 0 0 0 0 0 
0 0 0 0 0 0 0 0 0 
0 0 0 0 0 0 0 0 0 
0 0 0 0 0 0 0 0 0 
0 0 0 0 0 0 0 0 0 
0 0 0 0 0 0 0 0 0 
0 0 0 0 0 0 0 0 0 
0 0 0 0 0 0 0 0 0 
0 0 0 0 0 0 0 0 0 
0 0 0 0 0 0 0 0 0 
0 0 0 0 0 0 0 0 0 
0 0 0 0 0 0 0 0 0 
0 0 0 0 0 0 0 0 0 
0 0 0 0 0 0 0 0 0 
0 0 0 0 0 0 0 0 0 
0 0 0 0 0 0 0 0 0 
0 0 0 0 0 0 0 0 0 
0 0 0 0 0 0 0 0 0 
0 0 0 0 0 0 0 0 0 
0 0 0 0 0 0 0 0 0 
0 0 0 0 0 0 0 0 0 
0 0 0 0 0 0 0 0 0 
0 0 0 0 0 0 0 0 0 
0 0 0 0 0 0 0 0 0 
0 0 0 0 0 0 0 0 0 
0 0 0 0 0 0 0 0 0 
0 0 0 0 0 0 0 0 0 
0 0 0 0 0 0 0 0 0 
0 0 0 0 0 0 0 0 0 
0 0 0 0 0 0 0 0 0 
0 0 0 0 0 0 0 0 0 
0 0 0 0 0 0 0 0 0 
0 0 0 0 0 0 0 0 0 
0 0 0 0 0 0 
v 3 722 double
0.0080156891962 -0.0015029605931 0.004447886628 0.010048934566 -0.00070430313784 0.0034683114765 -0.015970077835 0.15166809512 0.0078683031147 
-0.13317801248 0.16221021249 0.0070055395523 0.0084999301845 0.1323890659 0.0081926522313 0.0041098429884 0.30328549985 0.0085481915591 
0.0046274359853 0.008066801115 -0.0032981339191 -0.0056303209371 0.0085283445581 0.016039859049 -0.027173646627 0.011902077028 0.021408443641 
-0.067016782723 0.05887268572 -0.088471391057 0.00042695319134 0.13846042764 0.029105660503 0.0086390268809 0.038845535794 -0.0015567670795 
0.019798951085 0.040401127349 0.0076420378047 -0.078830096885 0.05744859893 0.00019912973901 -0.19048707261 0.037453699347 -0.044591951551 
-0.073359751146 0.048740936439 0.033533506534 0.088754276994 0.22662720955 0.01755179333 0 0.410001241 0 
-0.015825932323 -0.0093599622889 0.054880867859 -0.055110835015 0.016838623604 0.044337729087 -0.021953360345 0.025884201396 0.04599242959 
-0.027682094838 0.035560805087 0.07204171858 -0.040956546694 0.26237529859 -0.077021290032 0.012445841211 0.010247161759 0.022377678425 
-0.052806535397 0.024323413529 0.073682984456 0.012718550083 0.067616469755 0.01425317236 -0.18057624424 -0.049283336929 -0.078130502795 
0.096087284017 0.12261288527 -0.004294039915 -0.046543241901 0.073906791384 0.057776194531 -0.097613623005 0.14261836488 -0.069878233524 
-0.00066328633309 0.27334262606 0.093316999735 -0.023837693753 0.013424326694 0.030482934101 -0.024108631974 0.052866387327 -0.0092589620461 
-0.067244853967 0.04522047833 -0.011281584556 -0.005644904192 0.11634111591 0.004857108426 -0.031250205073 0.21919385107 0.082559184695 
-0.0096575554909 0.27005267014 0.0080604148417 0.017418324533 0.057616216922 -0.030352324845 0.035121297983 0.12847363527 0.096812815135 
0.010421709988 0.032597662155 0.089304931032 -0.02568388976 0.17898130461 0.043235618101 0.049970442685 -0.065324642116 0.045880628903 
-0.013011560337 0.21057775716 -0.067361238852 -0.00010155981897 0.4026845298 0.00010091191765 0.17906924697 0.04465336239 0.12954131523 
-0.19555073313 0.025642988905 -0.073980851181 0.084560273476 0.0049494460269 0.023097140815 8.7304082862e-05 0.05658216547 0.0490846904 
-0.29508440245 -0.071096543414 -0.22995170811 -0.051741169069 0.04058371722 -0.053836692909 -0.0032792434209 0.15987574977 -0.11366743156 
-0.041178332009 0.14957725344 0.14796284926 0 0.39875905054 0 -0.1093329276 0.013073293453 -0.054392005946 
-0.10514529648 0.01736526256 0.032910920883 -0.023683525094 0.038479039595 0.077669425022 0.0073616794846 0.22860097262 0.0056379145434 
0.015727314557 0.021455075493 -0.0024677751594 0.12805066387 0.097112908791 0.070525714734 -0.0039167831326 0.051254836739 -0.001557137884 
0.011388376557 0.041364487349 -0.11565082641 -0.10659233928 0.13529730026 -0.13355815864 0.095677381331 0.0044200649861 -0.086041273012 
0.21273066105 0.083784470045 0.0040210919325 0.088817694295 0.1124998154 -0.053149249242 -0.081077584478 0.27179021998 -0.19453844851 
0.021593665187 0.0095357454859 0.083271952659 0.0720265258 0.092481050782 0.10567728676 0.13721431181 0.10181133851 -0.021435361436 
-0.035862658324 0.090291244517 0.064308977049 -0.016476201133 0.099454444818 -0.084306564822 -0.011140416409 0.097767829241 -0.12921837017 
0.1287683514 0.19121853907 0.11076579337 0.086954209449 0.2526704874 -0.16366621469 0 0.39904491296 0 
0.1362875538 0.039257522085 -0.0091534098264 0.029577089408 0.051621073356 0.036709279218 0.068650783752 0.018026213225 0.060475464125 
0.13889610943 -0.022972110717 0.059703086428 0.10344903995 0.054815171856 -0.0038259629395 -0.019593090008 0.057115403233 0.099738465183 
0.028538407798 0.025056636625 -0.064268107381 -0.082935369571 0.12454513688 0.22031739751 0.048239276178 0.099225294711 0.24497616456 
0 0.38773520475 0 -0.040935584861 0.0080659946873 -0.037605969439 -0.05241557277 -7.6474465414e-05 -0.038101718797 
0.031590655792 0.043572963739 -0.02529784089 -0.033229108723 0.13146619811 -0.072439225811 0.0094198569489 0.15103026516 -0.022541178981 
-0.15104217532 0.21350433729 -0.08847513098 -0.0027343479842 0.020591615742 0.016982238916 -0.02456028625 0.011359228832 -0.0113720337 
0.027032685635 0.021794619309 -0.024559164227 -0.079995245439 -0.017084149868 -0.024509996072 -0.018713004647 0.38875185117 7.8913229596e-15 
-0.010215913331 0.035447076697 0.029717211007 0.014928890544 0.04441030584 -0.041816267398 -0.047772226234 0.0132061549 0.03151757883 
0.080529813377 0.0057628936695 0.0071294393731 0.0050133738183 0.03415893043 0.0051985059679 -0.0096028627141 0.01633234848 0.054694933923 
-0.0061600299512 0.11429591419 0.13432692073 -0.0019492195281 0.06894765178 0.027024499287 0.049403257311 0.043097090476 -0.013412633032 
0.017297158063 0.051523199259 0.034196204277 -0.029513261594 0.16173266479 0.02841832475 0.058714015235 0.0017270508604 -0.0052240249124 
-0.0039913111495 0.045910097796 0.029473773607 0.058087612515 0.020893658911 0.057573748421 0.043123495637 0.038606691854 0.058239888712 
-0.093883439559 0.14252171153 0.082969879669 0.025829432504 0.37677948319 0.027199121578 0.045861773211 0.010416166083 0.066043061475 
-0.029110559063 0.018207847277 -0.076876075613 0.067510310188 0.0041974604169 0.087880053191 -0.021958819501 0.054191597684 0.048298013441 
-0.19451755495 0.039668183639 -0.064885900376 0.024759942221 0.078324211804 0.044473428344 -0.00052740355422 0.38710693906 -0.0011288573072 
0.025260218057 0.37678219253 -0.028024549046 -0.046054797591 0.035397971386 0.092164701031 0.040692486761 0.040028993819 0.016705036457 
-0.028734807798 0.24194419456 -0.0010331898798 -0.0033120346244 0.036987221945 0.014520019751 -0.01446684177 0.032878853391 -0.0024533046815 
0.13707801014 0.10385176188 0.11392848556 -0.0016610994383 0.29654940525 0.0087496036546 0.015763933914 0.0065948336356 0.094849352011 
-0.055878085168 0.018552676409 0.077319089015 0.0058662362083 -0.0047575354982 0.1205492242 0.021557993965 0.0033648425129 0.078175290305 
0.012190777852 0.32929773123 0.012633784709 0.048787878444 0.025521855283 0.10157198777 0.048689639876 0.084903789202 0.047570047855 
-0.018697854525 0.19836571032 0.034234384001 0.091413329724 -0.020382990837 0.10182231993 -0.13645977946 0.12244416595 0.087249181893 
-0.076416026534 0.17725342488 -0.024615689046 0.047994318171 0.039418765254 0.071322416347 -0.012212897362 0.075823784745 -0.18361467497 
0.031131950044 0.032706997154 0.10031977015 -0.05154172184 0.10765359284 0.035977243928 0.044804293718 0.32049728826 -0.0062287931832 
-0.00044574958215 0.029243049089 0.10201140501 -0.14684183204 0.0079436499743 -0.079768840288 0.08060329694 0.0325350987 0.01274380369 
0.0002814165965 0.39586236908 -0.0042450652735 -0.00036883905222 0.40129851273 -0.0077537456699 0 0.38761842277 0 
-0.0033082998542 0.13377592098 -0.0033247496929 0.033991363402 0.19247764267 -0.017820487125 0.0012503121485 0.38702661056 -0.005926866043 
-0.0046666478446 0.28784143851 -0.0046798590522 0.10242992302 0.085288386905 0.0090130720863 -0.029394353095 0.37671660121 0.027767729796 
-0.029962767711 0.37671946244 -0.027455527971 0.084445824934 -0.027829691904 0.02430493986 -0.018673129003 0.22509155007 0.014510142177 
0 0.3987994427 6.9043932791e-06 0.0024336544151 0.40286253151 0.0042270621109 0.0029908071981 0.23661087759 -0.014510026365 
-0.057336234664 0.064076704248 -0.023730783112 0.042256730961 0.27150018908 0.1254322865 -0.00032362647397 0.39932044177 -0.0012764948875 
0.00051441565056 0.39864167423 0.0017178022421 -0.027545708121 0.38422685286 0.11030070993 -0.077949132161 0.1640541936 -0.025301185442 
-0.019718467175 0.29448520505 0.12092734083 0.020188320678 0.34687093157 -0.00040929342903 0.086053560792 0.32893311383 -0.0017445639745 
0.11995622452 0.011863667935 0.0047441828118 -0.066149991525 0.065765809604 -0.020818425339 -0.22880268682 0.26789886558 -0.019808350501 
-0.078040903224 0.012317233288 -0.0024669848271 0.13835760544 0.04733325279 -0.0010310392601 -0.027869684498 0.28402964143 -0.027869684498 
0.027869684498 0.28402964143 -0.027869684498 -0.027869684498 0.51390203134 -0.027869684498 0.027869684498 0.51390203134 -0.027869684498 
-0.04125526714 0.39714501683 -0.10814853943 0.014484300369 0.39721888679 -0.10814812224 -0.041363751989 0.62701657341 -0.10876561409 
0.014375274984 0.62709110505 -0.10876690403 -0.027869684498 0.28402964143 0.027869684498 0.027869684498 0.28402964143 0.027869684498 
-0.027869684498 0.51390203134 0.027869684498 0.027869684498 0.51390203134 0.027869684498 -0.041254969846 0.39756815431 -0.052408258422 
0.01448475908 0.39764093675 -0.052409461063 -0.041363410614 0.62743684168 -0.053027349337 0.014375689687 0.62751246083 -0.053026846719 
-0.027869684498 0.52490084875 -0.027869684498 0.027869684498 0.52490084875 -0.027869684498 0.027869684498 0.29502845884 -0.027869684498 
-0.027869684498 0.29502845884 -0.027869684498 -0.027869684498 0.52490084875 0.027869684498 0.027869684498 0.52490084875 0.027869684498 
-0.027869684498 0.29502845884 0.027869684498 0.027869684498 0.29502845884 0.027869684498 -0.027869684498 0.28399728714 -0.032741089804 
0.027869684498 0.28399728714 -0.032741089804 -0.027869684498 0.5138839808 -0.032788350519 0.027869684498 0.5138839808 -0.032788350519 
0.023379702087 0.28527751279 -0.046532606814 -0.032359732916 0.28512289368 -0.046339308751 0.02315253801 0.51514665798 -0.047477083015 
-0.032586730671 0.5149915733 -0.047283800975 -0.027869684498 0.28404593121 0.02300133675 0.027869684498 0.28404593121 0.02300133675 
-0.027869684498 0.51390399945 0.022947959576 0.027869684498 0.51390399945 0.022947959576 0.023572681784 0.28591969952 0.0092068701751 
-0.032166587494 0.28576463979 0.0094001362534 0.023345685169 0.51578868238 0.0082619304796 -0.032393752648 0.51563403741 0.0084552126361 
-0.027437984554 0.28381665778 0.028303252029 -0.028297900317 0.2837617036 -0.027436154755 0.028300400562 0.28383861681 0.027443814697 
0.027441805653 0.28378351731 -0.028295228933 -0.027470045737 0.51368901669 0.028222490779 -0.028330390754 0.51363405991 -0.027516452888 