# vtk DataFile Version 5.1
Generated by LIGGGHTS
ASCII
DATASET POLYDATA
POINTS 400 float
-0.109393 0.0620684 -0.144651 -0.0628038 0.0578398 -0.143622 -0.144093 0.067051 -0.145047 
-0.10798 0.0768652 -0.14288 -0.0599783 0.0774244 -0.144589 -0.0505851 0.0858021 -0.144471 
-0.0231232 0.0921854 -0.144305 -0.101362 0.104433 -0.145588 -0.0231755 0.101814 -0.143762 
-0.101367 0.114129 -0.14597 -0.143982 0.0568025 -0.14012 -0.111798 0.0556366 -0.136617 
-0.0135413 0.0611646 -0.13765 -0.138994 0.0716824 -0.137526 -0.0448798 0.0676422 -0.138264 
-0.0506954 0.105208 -0.141382 -0.101839 0.111977 -0.138102 -0.134502 0.0611624 -0.131357 
-0.0660698 0.0643659 -0.128647 -0.0536195 0.0675595 -0.132458 -0.110721 0.0725553 -0.133579 
-0.0371461 0.0796833 -0.130253 -0.127336 0.0818415 -0.131567 -0.0568741 0.0802557 -0.131135 
-0.0449969 0.0873286 -0.130886 -0.0560941 0.0911926 -0.132341 -0.0186599 0.101066 -0.131867 
-0.144491 0.0621205 -0.123946 -0.106371 0.0631777 -0.123268 -0.137535 0.10612 -0.12102 
-0.104956 0.0552832 -0.115726 -0.0794756 0.0619127 -0.113014 -0.14462 0.0713813 -0.110064 
-0.116505 0.0681068 -0.116844 -0.0559027 0.0701604 -0.115928 -0.0388796 0.067756 -0.120976 
-0.0300001 0.0731693 -0.112992 -0.142865 0.0791234 -0.11686 -0.0799234 0.0809847 -0.112643 
-0.107031 0.0613316 -0.104521 -0.0468453 0.0677077 -0.110763 -0.0193045 0.0682106 -0.10797 
-0.140489 0.0811607 -0.103759 -0.00974185 0.0568509 -0.100906 -0.0376925 0.0667104 -0.103091 
-0.0104013 0.0677878 -0.101595 -0.0552382 0.0551618 -0.0965455 -0.105376 0.0559655 -0.0864928 
-0.0862438 0.055682 -0.0889079 -0.0749731 0.0572176 -0.0878826 -0.04756 0.0567697 -0.0855728 
-0.0689514 0.104255 -0.0872947 -0.05984 0.0557213 -0.0748694 -0.051051 0.0848269 -0.0822955 
-0.0385715 0.0741143 -0.0789733 -0.102274 0.0650445 -0.0713365 -0.0184033 0.0698057 -0.0746506 
-0.115324 0.0811794 -0.0710392 -0.102888 0.0829536 -0.0750102 -0.0118316 0.07407 -0.0687936 
-0.0848825 0.0968846 -0.0727564 -0.118179 0.057923 -0.0627369 -0.0622216 0.0615211 -0.0661308 
-0.0506369 0.0769851 -0.0612378 -0.0968619 0.0904922 -0.066989 -0.108461 0.0720041 -0.0554993 
-0.0240792 0.0775343 -0.0600222 -0.134654 0.0622194 -0.0464749 -0.0825843 0.0709172 -0.0477433 
-0.143157 0.0687488 -0.0465951 -0.0121094 0.0787693 -0.0520401 -0.0529626 0.0858284 -0.0495144 
-0.0309789 0.0779516 -0.0397366 -0.0359392 0.0898255 -0.0436658 -0.127583 0.0630434 -0.0307992 
-0.0729509 0.0560956 -0.0348997 -0.0675508 0.0762045 -0.0338889 -0.104349 0.0756392 -0.0326997 
-0.0286902 0.0607226 -0.0293131 -0.0833067 0.0706445 -0.0243234 -0.0937847 0.0656096 -0.0189174 
-0.0911994 0.0835042 -0.0182513 -0.0488331 0.0817033 -0.019761 -0.0810287 0.084863 -0.0186194 
-0.106264 0.0641632 -0.00788779 -0.0163545 0.0803296 -0.0109723 -0.0797695 0.10203 -0.00980947 
-0.0684745 0.114385 -0.0136913 -0.0559377 0.0550877 -0.00741049 -0.057122 0.0651291 -0.00825122 
-0.0684745 0.114385 -0.00407499 -0.0408271 0.0651897 -0.00115547 -0.0260913 0.0802325 -0.00262868 
-0.09082 0.0931733 -0.00136576 -0.0810248 0.0925187 -0.00621816 -0.0687249 0.103372 -0.00427638 
-0.000255129 0.0602842 0.00576959 -0.106594 0.0765529 0.00672677 -0.00170485 0.0757505 0.00431986 
-0.0977433 0.0758364 0.000471883 -0.0976383 0.0867275 0.00128064 -0.0720575 0.0924838 0.00751733 
-0.0766827 0.101623 0.00282534 -0.107191 0.0606062 0.00688133 -0.0850873 0.0557864 0.0115921 
-0.0749249 0.0549859 0.00844398 -0.0436697 0.056807 0.0127458 -0.0232233 0.0608886 0.0148206 
-0.144426 0.0707517 0.0140554 -0.0849506 0.0661023 0.00684186 -0.075764 0.0690568 0.0100242 
-0.0362399 0.0691447 0.0139322 -0.0196412 0.0770315 0.0131523 -0.142137 0.0800834 0.0120068 
-0.143626 0.0900408 0.0113422 -0.110675 0.0860648 0.00844341 -0.110257 0.0955677 0.00802531 
-0.0749454 0.100346 0.0118537 -0.079087 0.111766 0.0139143 -0.0982796 0.0560104 0.0199617 
-0.0710929 0.0568198 0.0203417 -0.0621645 0.0599057 0.0147201 -0.108365 0.0610371 0.0179861 
-0.0680748 0.0691224 0.0210134 -0.100053 0.0677244 0.0164053 -0.0093709 0.0731053 0.0153777 
-0.00654903 0.090293 0.0203681 -0.137759 0.109226 0.0175844 -0.110538 0.0550108 0.0262153 
-0.0864 0.0570325 0.0242982 -0.0104751 0.0600399 0.0294781 -0.117446 0.061729 0.0221104 
-0.0156967 0.06812 0.0240694 -0.144056 0.0615858 0.024856 -0.115407 0.0737757 0.0230532 
-0.144377 0.0741931 0.0240645 -0.137495 0.097453 0.0268044 -0.102128 0.0584516 0.0365018 
-0.0561368 0.0549321 0.0333755 -0.136125 0.0674963 0.0351554 -0.0529314 0.0641596 0.031036 
-0.0568742 0.0822439 0.0321826 -0.0424745 0.111726 0.0368789 -0.0483482 0.0560755 0.0456712 
-0.0660782 0.0683036 0.0377727 -0.0893752 0.0765809 0.044633 -0.0456756 0.0649973 0.0425698 
-0.128779 0.0959401 0.0415298 -0.0997161 0.0614683 0.0496862 -0.123281 0.0656173 0.0461524 
-0.0899486 0.106132 0.0478513 -0.062314 0.0554111 0.0614585 -0.0401407 0.0588344 0.0590509 
-0.116533 0.0674455 0.0531501 -0.069135 0.0962327 0.0553639 -0.106768 0.0767231 0.062131 
-0.095388 0.0699657 0.0674947 -0.0515694 0.0854031 0.0621647 -0.0952296 0.0835743 0.0661492 
-0.0890377 0.061478 0.0717569 -0.13978 0.0785047 0.070812 -0.130043 0.0749494 0.0738794 
-0.0624371 0.0729228 0.0723856 -0.0517667 0.0816545 0.0734402 -0.108946 0.0611378 0.080499 
-0.0844228 0.0611458 0.0828399 -0.0994711 0.0817722 0.0792597 -0.141346 0.0666208 0.0840536 
-0.0260893 0.0721124 0.0831318 -0.120295 0.0790197 0.0836254 -0.0419316 0.0808473 0.0878549 
-0.0169162 0.0566861 0.0973861 -0.111623 0.068188 0.0917253 -0.0656935 0.0753232 0.0924949 
-0.140335 0.0585595 0.104454 -0.0812052 0.0666285 0.0994937 -0.0286389 0.0666485 0.101495 
-0.121144 0.0801267 0.100446 -0.0289033 0.0900057 0.101231 -0.0579011 0.0955111 0.111272 
-0.042123 0.0672362 0.114217 -0.0288791 0.0628929 0.112702 -0.109689 0.088334 0.113554 
-0.0596077 0.116379 0.113427 -0.132047 0.0768176 0.121051 -0.0637495 0.0973752 0.120794 
-0.0502993 0.105873 0.123137 -0.0486689 0.066733 0.132393 -0.116301 0.0791115 0.130377 
-0.124099 0.0875798 0.130535 -0.0481242 0.0842784 0.138767 -0.0398923 0.0958126 0.137628 
-0.0341668 0.103655 0.136541 -0.0723685 0.0571468 0.143724 -0.0765398 0.0689193 0.143872 
-0.0613117 0.0674571 0.144507 -0.048917 0.0742546 0.143386 -0.0645839 0.0814951 0.14468 
-0.0345476 0.108077 0.145683 -0.00188413 0.0562438 0.0807166 -0.0526394 0.0707641 0.00138207 
0.0292133 0.0547658 -0.143107 0.0424573 0.0608315 -0.14463 0.0277868 0.0648335 -0.143576 
0.0465823 0.0864104 -0.144949 0.137826 0.0790377 -0.144767 0.140347 0.0889004 -0.144778 
0.0221044 0.0966931 -0.145288 0.106082 0.095728 -0.14521 0.044689 0.0551068 -0.135948 
0.132207 0.0566414 -0.135593 0.0500296 0.0714909 -0.141976 0.130924 0.0677323 -0.135705 
0.140917 0.0745399 -0.13612 0.0125815 0.0792053 -0.138576 0.0131525 0.0891559 -0.139483 
0.133393 0.0978066 -0.141786 0.00897332 0.103386 -0.139633 0.0176191 0.101271 -0.138613 
0.0214879 0.114365 -0.138105 0.0353282 0.057117 -0.129618 0.0342617 0.0681179 -0.130685 
0.0524692 0.0795613 -0.131584 0.0314448 0.0878721 -0.128416 0.0095244 0.0934917 -0.130233 
0.0121354 0.0584713 -0.120579 0.0109953 0.0704805 -0.121725 0.0488331 0.0668637 -0.125409 
0.0230375 0.0771452 -0.125813 0.119752 0.100795 -0.122628 0.0497251 0.0605403 -0.118055 
0.068817 0.0584251 -0.120134 0.0954166 0.0984077 -0.1135 0.100388 0.0919323 -0.118834 
0.0281828 0.0567115 -0.111788 0.0397655 0.0608886 -0.110674 0.0525076 0.0561736 -0.108457 
0.0166833 0.0644494 -0.111659 0.0272273 0.0673252 -0.112743 0.1182 0.0600526 -0.105184 
0.0533472 0.0736937 -0.108019 0.0376784 0.0766704 -0.106973 0.0319824 0.0548577 -0.0995539 
0.000781391 0.0643056 -0.0992115 0.041472 0.0623342 -0.0975335 0.090253 0.107718 -0.097926 
0.048331 0.0570861 -0.091325 0.0612273 0.0553061 -0.0950308 0.0842068 0.0549164 -0.0958626 
0.0220167 0.061056 -0.0961622 0.0552231 0.0635871 -0.0941217 0.0920369 0.070083 -0.0973215 
0.0508318 0.0780205 -0.0941694 0.136284 0.0714191 -0.0936654 0.0666263 0.0936767 -0.0938224 
0.0108354 0.0555981 -0.0844631 0.0558388 0.0597339 -0.0829528 0.0699648 0.0556175 -0.0888702 
0.00550746 0.0651605 -0.085651 0.0188618 0.0636733 -0.0826313 0.0803545 0.0581114 -0.0857112 
0.0921625 0.074013 -0.083097 0.0146474 0.0805641 -0.0894129 0.0941906 0.0596117 -0.080181 
0.00313791 0.0606153 -0.0722631 0.107922 0.0732266 -0.0780534 0.0518313 0.06285 -0.0704382 
0.0633622 0.0668024 -0.0739463 0.0791574 0.0603044 -0.0726703 0.106772 0.0628498 -0.0701294 
0.0379628 0.117686 -0.0698659 0.120598 0.0733026 -0.0613599 0.0251434 0.059009 -0.0556243 
0.0658769 0.0578919 -0.05318 0.116199 0.0557825 -0.0556883 0.0853605 0.0634142 -0.0564998 
0.0281285 0.0763733 -0.0545734 0.0580185 0.0812299 -0.0573276 0.0135138 0.0820042 -0.0576241 
0.0576411 0.0568299 -0.0470165 0.0160688 0.0616533 -0.0462286 0.0569075 0.0676941 -0.04775 
0.0373145 0.0846514 -0.0482137 0.0441463 0.0583335 -0.0392002 0.127063 0.0634428 -0.0393134 
0.0841556 0.0625852 -0.0394613 0.0169327 0.0806551 -0.0442281 0.0682018 0.0872096 -0.0405517 
0.0374655 0.0712022 -0.0319381 0.125337 0.0776858 -0.0370879 0.121697 0.0883288 -0.0346534 
0.132042 0.0950226 -0.0254706 0.0190596 0.111193 -0.0269865 0.14462 0.0782225 -0.0170506 
0.134004 0.0860565 -0.0164603 0.144856 0.0892923 -0.0158833 0.0555162 0.103244 -0.0146082 
0.101581 0.0558857 -0.00404478 0.0682591 0.0606273 -0.00828933 0.0143217 0.0720467 -0.000856333 
0.144858 0.0862449 -0.00536339 0.0994706 0.0657846 -0.000458685 0.0733691 0.0580824 0.00440665 
0.0460173 0.0666982 0.00301931 0.0143418 0.0767809 0.144244 0.0803211 0.0670858 0.00207993 
0.105115 0.0747838 0.00695114 0.0800557 0.0794681 0.000844887 0.0535328 0.100303 0.00462572 
0.0532686 0.111944 0.0050329 0.0554781 0.0559714 0.0073936 0.0839799 0.0597361 0.0135322 
0.106 0.0557408 0.0143022 0.025064 0.0623636 0.0119685 0.103763 0.065562 0.0108764 
0.062141 0.0749124 0.0108766 0.0229874 0.0784381 0.00989194 0.0896313 0.0805157 0.0128122 
0.0775267 0.0578737 0.0223118 0.144097 0.0584318 0.0203084 0.0663147 0.0612841 0.0166224 
0.105433 0.0637653 0.0210168 0.0757036 0.0676136 0.0160429 0.117423 0.0652614 0.0188728 
0.0867254 0.0582071 0.0285417 0.112523 0.0574352 0.0251286 0.122554 0.0582208 0.0242841 
0.0796717 0.0700624 0.0278112 0.090306 0.0721562 0.0236614 0.0792067 0.0820794 0.0254004 
0.0254544 0.109319 0.0241012 0.104442 0.059969 0.0337201 0.118034 0.0645751 0.0371615 
0.132845 0.0913458 0.0350382 0.111415 0.104671 0.0365183 0.0912446 0.114165 0.0370224 
0.0315408 0.062815 0.0388371 0.105107 0.0581711 0.0441293 0.123613 0.0551572 0.0387775 
0.13833 0.0564599 0.0375326 0.0856492 0.0667483 0.0392623 0.020013 0.0858757 0.0395103 
0.115432 0.0884629 0.0385862 0.0197476 0.0959615 0.0396801 0.132498 0.0996163 0.041582 
0.0908724 0.103986 0.0376512 0.0910195 0.0835164 0.0507737 0.115698 0.0802204 0.0477984 
0.0254154 0.0608395 0.0558712 0.133311 0.0577032 0.0547086 0.00133718 0.0573891 0.0530811 
0.0360033 0.0692686 0.0542575 0.0286351 0.0810182 0.0551811 0.0927989 0.105871 0.0590487 
0.0852251 0.115296 0.0569815 0.0425949 0.0593506 0.0665635 0.000582045 0.0684335 0.0638629 
0.0440017 0.0728753 0.0621581 0.099799 0.0733628 0.0674087 0.0656751 0.0663883 0.07425 
0.135098 0.0652726 0.0713246 0.108326 0.0793999 0.0738069 0.114657 0.0806197 0.143307 
0.0247456 0.0610898 0.0788762 0.0156915 0.0634003 0.0750713 0.00562742 0.0742096 0.0801206 
0.1206 0.0578048 0.0864219 0.00739331 0.0637017 0.0838155 0.0553481 0.0634686 0.0806922 
0.0858878 0.0577782 0.0895516 0.0207992 0.0765775 0.0904021 0.0102717 0.0580861 0.0922162 
0.0304949 0.0728954 0.0902146 0.0389185 0.0821427 0.0931143 0.0561334 0.109683 0.092473 
0.123469 0.111468 0.0957058 0.0384571 0.0633664 0.103112 0.0698796 0.057139 0.104092 
0.0467799 0.0677856 0.0998302 0.0201758 0.0983954 0.101708 0.128207 0.0610432 0.106663 
0.123532 0.100805 0.105615 0.0607473 0.0587835 0.115496 0.143422 0.0601126 0.112359 
0.0767866 0.0654086 0.117936 0.0435474 0.0761802 0.11681 0.0572041 0.0733691 0.115481 
0.0201594 0.0991529 0.113018 0.0142592 0.0704891 0.122735 0.0537359 0.073745 0.128235 
0.085883 0.06976 0.128825 0.12754 0.0723439 0.129442 0.138143 0.0617789 0.128971 
0.0571803 0.0857212 0.13257 0.0896803 0.0892389 0.130625 0.144028 0.0558291 0.137549 
0.00479244 0.0859094 0.139907 0.0431149 0.0736919 0.136527 0.0806615 0.0907804 0.139627 
0.130197 0.0606077 0.144398 
VERTICES 401 400
OFFSETS vtktypeint64
0 1 2 3 4 5 6 7 8 
9 10 11 12 13 14 15 16 17 
18 19 20 21 22 23 24 25 26 
27 28 29 30 31 32 33 34 35 
36 37 38 39 40 41 42 43 44 
45 46 47 48 49 50 51 52 53 
54 55 56 57 58 59 60 61 62 
63 64 65 66 67 68 69 70 71 
72 73 74 75 76 77 78 79 80 
81 82 83 84 85 86 87 88 89 
90 91 92 93 94 95 96 97 98 
99 100 101 102 103 104 105 106 107 
108 109 110 111 112 113 114 115 116 
117 118 119 120 121 122 123 124 125 
126 127 128 129 130 131 132 133 134 
135 136 137 138 139 140 141 142 143 
144 145 146 147 148 149 150 151 152 
153 154 155 156 157 158 159 160 161 
162 163 164 165 166 167 168 169 170 
171 172 173 174 175 176 177 178 179 
180 181 182 183 184 185 186 187 188 
189 190 191 192 193 194 195 196 197 
198 199 200 201 202 203 204 205 206 
207 208 209 210 211 212 213 214 215 
216 217 218 219 220 221 222 223 224 
225 226 227 228 229 230 231 232 233 
234 235 236 237 238 239 240 241 242 
243 244 245 246 247 248 249 250 251 
252 253 254 255 256 257 258 259 260 
261 262 263 264 265 266 267 268 269 
270 271 272 273 274 275 276 277 278 
279 280 281 282 283 284 285 286 287 
288 289 290 291 292 293 294 295 296 
297 298 299 300 301 302 303 304 305 
306 307 308 309 310 311 312 313 314 
315 316 317 318 319 320 321 322 323 
324 325 326 327 328 329 330 331 332 
333 334 335 336 337 338 339 340 341 
342 343 344 345 346 347 348 349 350 
351 352 353 354 355 356 357 358 359 
360 361 362 363 364 365 366 367 368 
369 370 371 372 373 374 375 376 377 
378 379 380 381 382 383 384 385 386 
387 388 389 390 391 392 393 394 395 
396 397 398 399 400 
CONNECTIVITY vtktypeint64
0 1 2 3 4 5 6 7 8 
9 10 11 12 13 14 15 16 17 
18 19 20 21 22 23 24 25 26 
27 28 29 30 31 32 33 34 35 
36 37 38 39 40 41 42 43 44 
45 46 47 48 49 50 51 52 53 
54 55 56 57 58 59 60 61 62 
63 64 65 66 67 68 69 70 71 
72 73 74 75 76 77 78 79 80 
81 82 83 84 85 86 87 88 89 
90 91 92 93 94 95 96 97 98 
99 100 101 102 103 104 105 106 107 
108 109 110 111 112 113 114 115 116 
117 118 119 120 121 122 123 124 125 
126 127 128 129 130 131 132 133 134 
135 136 137 138 139 140 141 142 143 
144 145 146 147 148 149 150 151 152 
153 154 155 156 157 158 159 160 161 
162 163 164 165 166 167 168 169 170 
171 172 173 174 175 176 177 178 179 
180 181 182 183 184 185 186 187 188 
189 190 191 192 193 194 195 196 197 
198 199 200 201 202 203 204 205 206 
207 208 209 210 211 212 213 214 215 
216 217 218 219 220 221 222 223 224 
225 226 227 228 229 230 231 232 233 
234 235 236 237 238 239 240 241 242 
243 244 245 246 247 248 249 250 251 
252 253 254 255 256 257 258 259 260 
261 262 263 264 265 266 267 268 269 
270 271 272 273 274 275 276 277 278 
279 280 281 282 283 284 285 286 287 
288 289 290 291 292 293 294 295 296 
297 298 299 300 301 302 303 304 305 
306 307 308 309 310 311 312 313 314 
315 316 317 318 319 320 321 322 323 
324 325 326 327 328 329 330 331 332 
333 334 335 336 337 338 339 340 341 
342 343 344 345 346 347 348 349 350 
351 352 353 354 355 356 357 358 359 
360 361 362 363 364 365 366 367 368 
369 370 371 372 373 374 375 376 377 
378 379 380 381 382 383 384 385 386 
387 388 389 390 391 392 393 394 395 
396 397 398 399 
POINT_DATA 400
FIELD FieldData 8
id 1 400 int
2755 2648 3801 3023 3744 3884 3937 3970 3959 
3994 3781 3745 3773 3823 3726 3917 3987 2739 
3586 2901 3785 3844 3907 3903 3873 3931 3960 
3024 3757 3981 3685 3180 3297 3814 3830 3296 
3852 3894 3403 3727 3242 3025 2823 3766 3734 
3793 3802 2961 3824 3359 3686 3976 3774 2756 
3858 3716 3711 3026 3740 3877 3949 3243 3767 
2824 3932 3786 3404 3758 3687 3853 3181 2825 
2962 3908 3759 3405 3809 3878 3835 3360 3135 
3919 3895 3918 3815 3133 3961 3996 3787 3808 
3995 3845 3134 3939 3938 3975 3263 3182 3519 
3885 3909 3940 3971 2902 3631 3746 3782 2963 
3688 3720 3775 3810 3244 3896 3925 3920 3950 
3962 3988 3768 3788 3747 3803 3816 3831 3879 
3926 3982 3760 3794 3298 3825 3587 3836 3854 
3863 3955 3783 3461 3721 3406 3910 3989 3136 
3735 2826 3847 3941 3769 3728 3027 3761 3795 
3859 3951 3299 3864 2757 3911 3754 3245 3407 
3874 2964 3776 3837 3904 3736 3588 3183 3898 
3817 3865 3880 3804 3748 2509 3886 2649 3963 
3866 3855 3933 3997 3887 3956 3984 3690 3897 
3921 3722 3954 3983 3689 3729 3848 3632 3875 
3977 3765 3846 3818 3161 3849 3838 3876 3905 
3952 3942 2927 3717 3811 3741 3867 3899 3927 
3934 3972 3964 3978 3762 3789 3900 3922 3943 
3730 3749 3860 3888 3965 3665 3440 3957 3944 
3770 2867 2748 3208 3796 3839 2989 3889 3737 
3691 3856 3985 2591 3755 3812 3819 3784 3712 
3881 3868 3945 2481 3162 3777 3731 3805 3826 
3666 3840 3441 2749 3869 3385 3262 3832 3386 
3999 3850 3763 3813 3827 3841 3891 3518 3915 
3778 2482 3797 3929 3613 2483 3842 2750 3928 
3713 2751 3923 3946 3990 3890 3914 3913 3973 
3324 3806 3882 3912 3614 3779 3738 2990 3870 
3851 3901 3966 3991 3714 3764 3692 2790 3820 
3790 3084 3771 3667 3442 3750 3732 3723 3828 
3718 2690 3791 3861 3742 3892 3986 3833 2928 
3947 3979 3998 3756 3807 3751 3715 3739 3924 
3930 3953 3958 3974 3916 3902 3719 3780 3834 
3668 3906 3980 4000 3798 3862 3821 3520 2868 
3752 3209 3163 3743 3325 3871 3799 3843 2484 
3829 3857 3792 3443 2752 3993 3992 2550 3822 
3872 3969 3772 3968 3800 3326 3753 3521 3883 
3967 3694 2753 3725 3724 3733 3935 3936 3444 
2754 3893 3948 3693 
type 1 400 int
2 2 2 2 2 2 2 2 2 
2 2 2 2 2 2 2 2 2 
2 2 2 2 2 2 2 2 2 
2 2 2 2 2 2 2 2 2 
2 2 2 2 2 2 2 2 2 
2 2 2 2 2 2 2 2 2 
2 2 2 2 2 2 2 2 2 
2 2 2 2 2 2 2 2 2 
2 2 2 2 2 2 2 2 2 
2 2 2 2 2 2 2 2 2 
2 2 2 2 2 2 2 2 2 
2 2 2 2 2 2 2 2 2 
2 2 2 2 2 2 2 2 2 
2 2 2 2 2 2 2 2 2 
2 2 2 2 2 2 2 2 2 
2 2 2 2 2 2 2 2 2 
2 2 2 2 2 2 2 2 2 
2 2 2 2 2 2 2 2 2 
2 2 2 2 2 2 2 2 2 
2 2 2 2 2 2 2 2 2 
2 2 2 2 2 2 2 2 2 
2 2 2 2 2 2 2 2 2 
2 2 2 2 2 2 2 2 2 
2 2 2 2 2 2 2 2 2 
2 2 2 2 2 2 2 2 2 
2 2 2 2 2 2 2 2 2 
2 2 2 2 2 2 2 2 2 
2 2 2 2 2 2 2 2 2 
2 2 2 2 2 2 2 2 2 
2 2 2 2 2 2 2 2 2 
2 2 2 2 2 2 2 2 2 
2 2 2 2 2 2 2 2 2 
2 2 2 2 2 2 2 2 2 
2 2 2 2 2 2 2 2 2 
2 2 2 2 2 2 2 2 2 
2 2 2 2 2 2 2 2 2 
2 2 2 2 2 2 2 2 2 
2 2 2 2 2 2 2 2 2 
2 2 2 2 2 2 2 2 2 
2 2 2 2 2 2 2 2 2 
2 2 2 2 2 2 2 2 2 
2 2 2 2 2 2 2 2 2 
2 2 2 2 2 2 2 2 2 
2 2 2 2 2 2 2 2 2 
2 2 2 2 
i 3 400 int
0 0 0 0 0 0 0 0 0 
0 0 0 0 0 0 0 0 0 
0 0 0 0 0 0 0 0 0 
0 0 0 0 0 0 0 0 0 
0 0 0 0 0 0 0 0 0 
0 0 0 0 0 0 0 0 0 
0 0 0 0 0 0 0 0 0 
0 0 0 0 0 0 0 0 0 
0 0 0 0 0 0 0 0 0 
0 0 0 0 0 0 0 0 0 
0 0 0 0 0 0 0 0 0 
0 0 0 0 0 0 0 0 0 
0 0 0 0 0 0 0 0 0 
0 0 0 0 0 0 0 0 0 
0 0 0 0 0 0 0 0 0 
0 0 0 0 0 0 0 0 0 
0 0 0 0 0 0 0 0 0 
0 0 0 0 0 0 0 0 0 
0 0 0 0 0 0 0 0 0 
0 0 0 0 0 0 0 0 0 
0 0 0 0 0 0 0 0 0 
0 0 0 0 0 0 0 0 0 
0 0 0 0 0 0 0 0 0 
0 0 0 0 0 0 0 0 0 
0 0 0 0 0 0 0 0 0 
0 0 0 0 0 0 0 0 0 
0 0 0 0 0 0 0 0 0 
0 0 0 0 0 0 0 0 0 
0 0 0 0 0 0 0 0 0 
0 0 0 0 0 0 0 0 0 
0 0 0 0 0 0 0 0 0 
0 0 0 0 0 0 0 0 0 
0 0 0 0 0 0 0 0 0 
0 0 0 0 0 0 0 0 0 
0 0 0 0 0 0 0 0 0 
0 0 0 0 0 0 0 0 0 
0 0 0 0 0 0 0 0 0 
0 0 0 0 0 0 0 0 0 
0 0 0 0 0 0 0 0 0 
0 0 0 0 0 0 0 0 0 
0 0 0 0 0 0 0 0 0 
0 0 0 0 0 0 0 0 0 
0 0 0 0 0 0 0 0 0 
0 0 0 0 0 0 0 0 0 
0 0 0 0 0 0 0 0 0 
0 0 0 0 0 0 0 0 0 
0 0 0 0 0 0 0 0 0 
0 0 0 0 0 0 0 0 0 
0 0 0 0 0 0 0 0 0 
0 0 0 0 0 0 0 0 0 
0 0 0 0 0 0 0 0 0 
0 0 0 0 0 0 0 0 0 
0 0 0 0 0 0 0 0 0 
0 0 0 0 0 0 0 0 0 
0 0 0 0 0 0 0 0 0 
0 0 0 0 0 0 0 0 0 
0 0 0 0 0 0 0 0 0 
0 0 0 0 0 0 0 0 0 
0 0 0 0 0 0 0 0 0 
0 0 0 0 0 0 0 0 0 
0 0 0 0 0 0 0 0 0 
0 0 0 0 0 0 0 0 0 
0 0 0 0 0 0 0 0 0 
0 0 0 0 0 0 0 0 0 
0 0 0 0 0 0 0 0 0 
0 0 0 0 0 0 0 0 0 
0 0 0 0 0 0 0 0 0 
0 0 0 0 0 0 0 0 0 
0 0 0 0 0 0 0 0 0 
0 0 0 0 0 0 0 0 0 
0 0 0 0 0 0 0 0 0 
0 0 0 0 0 0 0 0 0 
0 0 0 0 0 0 0 0 0 
0 0 0 0 0 0 0 0 0 
0 0 0 0 0 0 0 0 0 
0 0 0 0 0 0 0 0 0 
0 0 0 0 0 0 0 0 0 
0 0 0 0 0 0 0 0 0 
0 0 0 0 0 0 0 0 0 
0 0 0 0 0 0 0 0 0 
0 0 0 0 0 0 0 0 0 
0 0 0 0 0 0 0 0 0 
0 0 0 0 0 0 0 0 0 
0 0 0 0 0 0 0 0 0 
0 0 0 0 0 0 0 0 0 
0 0 0 0 0 0 0 0 0 
0 0 0 0 0 0 0 0 0 
0 0 0 0 0 0 0 0 0 
0 0 0 0 0 0 0 0 0 
0 0 0 0 0 0 0 0 0 
0 0 0 0 0 0 0 0 0 
0 0 0 0 0 0 0 0 0 
0 0 0 0 0 0 0 0 0 
0 0 0 0 0 0 0 0 0 
0 0 0 0 0 0 0 0 0 
0 0 0 0 0 0 0 0 0 
0 0 0 0 0 0 0 0 0 
0 0 0 0 0 0 0 0 0 
0 0 0 0 0 0 0 0 0 
0 0 0 0 0 0 0 0 0 
0 0 0 0 0 0 0 0 0 
0 0 0 0 0 0 0 0 0 
0 0 0 0 0 0 0 0 0 
0 0 0 0 0 0 0 0 0 
0 0 0 0 0 0 0 0 0 
0 0 0 0 0 0 0 0 0 
0 0 0 0 0 0 0 0 0 
0 0 0 0 0 0 0 0 0 
0 0 0 0 0 0 0 0 0 
0 0 0 0 0 0 0 0 0 
0 0 0 0 0 0 0 0 0 
0 0 0 0 0 0 0 0 0 
0 0 0 0 0 0 0 0 0 
0 0 0 0 0 0 0 0 0 
0 0 0 0 0 0 0 0 0 
0 0 0 0 0 0 0 0 0 
0 0 0 0 0 0 0 0 0 
0 0 0 0 0 0 0 0 0 
0 0 0 0 0 0 0 0 0 
0 0 0 0 0 0 0 0 0 
0 0 0 0 0 0 0 0 0 
0 0 0 0 0 0 0 0 0 
0 0 0 0 0 0 0 0 0 
0 0 0 0 0 0 0 0 0 
0 0 0 0 0 0 0 0 0 
0 0 0 0 0 0 0 0 0 
0 0 0 0 0 0 0 0 0 
0 0 0 0 0 0 0 0 0 
0 0 0 0 0 0 0 0 0 
0 0 0 0 0 0 0 0 0 
0 0 0 0 0 0 0 0 0 
0 0 0 0 0 0 0 0 0 
0 0 0 0 0 0 0 0 0 
0 0 0 
v 3 400 double
0.0091126087016 0.14572308641 -0.1162558286 -0.034028346872 0.042358511706 -0.012530444206 -0.032151469075 0.064138024806 -0.27506988733 
0.020631748548 0.17880320196 0.015836613842 -0.13684008619 -0.45682123738 0.025602696357 -0.01085233179 -0.82897663213 0.039972707858 
-0.0054454375635 -1.0033467067 -0.0048384122679 0 -0.94319110367 0.03981452319 -0.0032109286111 -0.99667905255 0.0098342594501 
0.0073017846774 -0.83135428451 0.068230446119 0.00069594407463 0.1559878417 -0.050566694034 -0.10185339088 -0.082750290268 -0.17707604185 
0 0.4000234633 0 0.19297744096 -0.042470464049 -0.21249141856 0.066271742858 -0.56661154189 0.040361573367 
-0.013734895208 -0.48692684303 0.10265739592 -0.0083415219662 -0.98471296677 0.12867894074 -0.28509230218 -0.32031398117 -0.24398425931 
-0.22463309809 -0.50664149946 0.009785169402 0.11432247107 -0.0080674294763 0.093663119336 -0.093359494911 0.015343262754 -0.30567772697 
0.31208578683 -0.4367738468 0.27824734041 0 -1.0278696845 0 -0.042462211807 -1.0054256705 0.031047097879 
0.11885496493 -0.63082083699 0.21183462095 0.0031083959005 -0.99335849204 -0.0030514078837 -0.0017459094468 -1.0111189021 -0.0080386425114 
0.047023660214 -0.22867315001 0.053449969818 0.0340779321 0.0002319135752 0.0029551833854 0.00017700445032 -1.0107416072 -0.012519541024 
0.044403781778 0.014978611389 0.099814755919 -0.005644904192 0.11634111591 0.004857108426 -0.07049773457 -0.10300358568 0.45541320285 
0.31223624079 -0.33803605457 0.24039670806 0.1086170075 -0.55587730925 0.28130026752 -0.088636660771 -0.31833480745 -0.13020303784 
0.059066017758 -0.21799998636 0.10430757491 -0.0009813913274 -0.33864815927 -0.44173462769 -0.0096575554909 0.27005267014 0.0080604148417 
-0.014901053929 -0.088385435829 0.28332991228 -0.064482305143 0.13963330767 0.17489646031 0.5255975771 -0.13653802272 0.24035628514 
0.048239276178 0.099225294711 0.24497616456 -0.0031086876156 0.096402335221 -0.003305377453 0 0.39896583638 0 
-0.026209269302 0.18779502526 -0.02766045925 -0.040956546694 0.26237529859 -0.077021290032 0.0076670219817 0.05863614927 0.27053373128 
0 0.4099646538 0 -0.097613623005 0.14261836488 -0.069878233524 0.14905294577 0.19639092514 0.014893614453 
-0.00029414138551 -1.0100510944 0.0058730871698 0.1287683514 0.19121853907 0.11076579337 0 0.39895779965 -0.0048950405667 
0.21664196646 -0.54186668609 -0.31795590965 -0.0040698707369 0.28466486532 -0.023757018061 -0.1496820017 0.063304485989 -0.12925749456 
-1.4485258125e-05 0.39873630553 -3.634419112e-05 -0.013439671783 0.51232874696 -0.080587636658 0.1496820017 -0.66941340464 0.13428143665 
0 -1 0 0.0073616794846 0.22860097262 0.0056379145434 -0.004507024569 0.40045571211 -0.019038581245 
-0.21192915926 -0.071779856971 0.31197155673 -0.0016698730382 -0.99767684974 0.0041568365541 0.16516498594 -0.03766484776 0.11888971262 
0.013750131286 0.41310435568 -0.010249234026 0.40068072595 -0.21000497752 0.007023702728 0 0.39374558319 -0.0047274651976 
-0.40539353315 -0.36130986969 -0.0010457392864 -0.0006249839803 0.39654364795 -0.0035443033661 0 0.41049660782 0 
0.21076709933 -0.53446244618 0.16273303228 -0.21558529215 -0.019513045433 -0.17941226195 0 0.40508628054 1.1391752074e-05 
0.034626084256 0.24483133848 0.0064815182093 0.10261538139 0.024450565892 0.019208162786 0 -1 0 
0 -1 8.088568831e-19 0.32607506076 -0.13831851213 -0.20180837672 0.02717005516 0.18182771144 0.004990411836 
-0.0051518002829 -1.0074981052 0.0089462542549 0 -0.9721303155 0 0.003859025224 -0.98573924459 0.0030514078836 
-0.26618017517 -0.56735765787 0.21232770592 -0.0030995011966 0.4005287818 -0.0015598553611 0.0050184951068 -0.98608817937 0.010670165464 
0 -0.9721303155 2.6243361572e-14 -0.062514802002 0.021990781254 -0.11975482435 -0.13951011532 0.06517407504 -0.20749751531 
0 -0.9721303155 -2.6243361572e-14 0.055655422775 -0.9721303155 -2.3470112193e-14 0.0017389604782 0.39882328398 -0.0017389604782 
-0.053907145677 -0.9716309442 -0.011111672721 0.0090537897323 -1.0050710616 -0.11989829479 0.0003178502612 -1.0164391779 0.0014461503232 
-0.0053444608278 0.09390465394 -0.0053444608277 0.21566785076 -0.61095565805 -0.107075311 -0.026301618679 0.19420349068 -0.026301618679 
0 -1 -0.013934842249 -0.012826164213 -0.98317172217 0.0076790840024 0.1000715265 -1.0607543145 0.057200655507 
-0.01317286668 -1.0069206427 -0.011830734102 -0.081500995447 0.00078626445122 -0.12758225016 -0.036369366484 0.017974500659 -0.068187313974 
0.0039388987427 0.041612520409 -0.10799450989 -0.0083138111373 0.32674760246 -0.0014566924518 0.050307472457 -0.061266872548 -0.00070941091907 
-0.18460250919 -0.58455866595 0.16382852064 0.090991702907 0.041920777393 -0.17142383997 -0.027995564052 0.18752739779 -0.027999057923 
-0.091472869173 -0.54760550676 -0.01458051581 -0.011140416409 0.097767829241 -0.12921837017 0.1858277918 -0.065882732416 -0.15748407008 
-0.009318504375 -0.93373270834 -0.0097539163526 -0.19047132859 -0.73728953274 0.082401219567 -0.048683360095 -0.37520154692 0.0078805052997 
-0.0056457773081 -0.9460595271 0.06213092506 0 -0.9721303155 8.088568831e-19 0.043054792864 0.1140800507 0.028388883824 
0.035195391938 0.24837499408 -0.0076218529617 -0.014149918022 0.29092622257 -0.128939732 -0.37920215727 -0.31438904196 0.043807766704 
0.14839527413 0.58811835358 0.043079860813 0.024600637815 -0.48824392693 -0.0093823471637 0.10575096887 -0.94848065934 0.011524954594 
0.0069674211245 -0.97909773663 0.0069674211245 0 -0.9721303155 0 0.027338134681 0.074724909885 0.016958306927 
-0.0021049833578 0.38899466784 -0.000126565171 0.049596459578 0.02619226542 0.061006345325 -0.32883568338 -0.2831456697 -0.1910683557 
0.0090874434629 0.066557485852 0.0035811527627 0.033712270953 -0.97759866889 0 -0.041144990168 -0.29450778737 -0.032836461159 
0.033712270956 -0.93586356108 -0.0066127025115 0 -1.0278696845 -5.7046249395e-14 -0.0020887119363 0.38986351732 -0.0070491576428 
-0.062658027267 -0.072190422332 -0.10394895025 0.0011427222985 0.38876322421 0.00064935020248 0.012368722391 -0.088351421139 -0.28417015083 
0 -1.0278696845 0 -0.0022357930233 -0.9708917541 -0.002153005058 0.067610476529 -0.12130843171 0.086505272343 
0 0.41007381017 0 -0.0016610994383 0.29654940525 0.0087496036546 0.19454538101 -0.51744393492 0.17702084451 
0 -0.9721303155 0.013934842249 0.0020429030869 0.39521847008 -0.0010600737839 -0.11765816329 0.2195121928 -0.12128867624 
-0.0067172086632 0.56567410001 0.037516284279 -0.083332645674 0.2096788358 0.2024937528 0 0.41052549956 0 
0.1164577004 -0.83274960879 0.12062972558 0 -0.9721303155 8.088568831e-19 0 0.39882697079 0 
0 -0.99303257888 8.088568831e-19 0 0.39925497113 0 0.0052880434447 -1.0004984641 -0.015408349461 
-0.10518860127 0.064168927301 -0.25071698318 0.00056348824668 0.40152978625 0.00027402949384 0.0023122065005 0.39628274053 0.0023597342796 
0 -1 0 0 0.39875819248 -0.0097057056303 -0.0017479111205 0.39886792968 0.0017479111205 
0.10468250537 -0.66538462477 0.25039332509 -0.0052880434447 -1.006468957 0.0084409283367 0 0.39872827304 0 
0 0.38755395842 -0.0050852537353 -8.0938774001e-06 0.39894161244 0 -0.0008064506435 -0.99196076729 0.011645257734 
0 -0.9721303155 0 1.3774428291e-14 -1.0069674211 0.020902263374 0.0069852072671 -0.97518146925 -0.0026621151977 
0 0.41016565709 9.1963837408e-06 0.0002436659938 0.41148920957 0.0063921664547 -0.0033082998542 0.13377592098 -0.0033247496929 
-0.0034475634525 -0.97061866319 0.015296391299 -0.0046666478446 0.28784143851 -0.0046798590522 0 -1.0139348422 0.013934842249 
-0.0067776025484 -1.0107819949 -0.011329690883 0.0067776025484 -1.0310225318 -0.0026051513661 0 -1 -8.088568831e-19 
0.0014610539288 -0.96504033019 -0.0073217767032 -0.0027311931712 -0.99953231016 -0.0033772704618 0.00043407114166 -1.0152295393 -0.01351538144 
0.0017521974428 -1.0007942276 0.004261372227 0.003430585782 0.26858144658 0.036345321829 0.033507479586 -1.0363898676 -0.00067931275374 
-0.041870913108 -0.95452725751 0.00084886846854 0.011418066286 0.44714508742 0.13056772323 -0.035841472273 -1.0574246358 -0.02113637998 
0.010182988137 -0.9852738893 -0.15273805012 -0.043764776739 -0.20513115922 -0.010421410614 -0.30057167303 -0.0057001018753 -0.016076409613 
0.28531218193 -0.76554410377 -0.012426308605 0.00012723140704 0.41108127166 -0.017584560188 0.076243950606 -0.45975376378 -0.018207151997 
0.0051170073018 -0.81210678053 -0.03981278587 -0.33420090154 -0.44427028621 -0.10766389774 0.10739636165 -0.23419772336 0.34157045848 
0.012802264726 -0.10986476128 0.0044509887213 -0.079768037551 -0.10174677636 -0.067125706078 -0.11206864845 0.024731392165 -0.03531712466 
0.0088930515052 -0.17001667165 0.028720490396 0.015796493341 -0.74662530715 -0.075499594024 0.05618173834 -0.86696256528 0.033707224387 
0.07485255183 -0.94850348559 0.038196500351 -0.0076243379527 -0.92247007491 0.040314395848 0.010759783558 -0.089946067689 0.13089249266 
-0.061780684578 -0.33789215487 0.01263593006 0.12102399357 -0.32220045698 -0.0013235277117 -0.24858613197 -0.062233116697 0.028813046543 