# vtk DataFile Version 5.1
Generated by LIGGGHTS
ASCII
DATASET POLYDATA
POINTS 400 float
-0.140655 0.0550467 -0.143586 -0.116504 0.0550869 -0.144062 -0.0957574 0.0553524 -0.144628 
-0.0666973 0.0550736 -0.14443 -0.0847072 0.0648545 -0.144867 -0.023291 0.064586 -0.142457 
-0.144287 0.0697985 -0.144863 -0.0746925 0.070444 -0.144702 -0.0506971 0.0782341 -0.144227 
-0.0656025 0.0590637 -0.134674 -0.111169 0.0626307 -0.140126 -0.00421297 0.0684723 -0.136711 
-0.130249 0.0719849 -0.141551 -0.112492 0.0762801 -0.137465 -0.0337118 0.0744593 -0.136964 
-0.0233445 0.0837822 -0.136688 -0.144463 0.0598637 -0.134808 -0.131766 0.0564512 -0.132832 
-0.121653 0.0571146 -0.133735 -0.0957179 0.0565235 -0.127989 -0.0496378 0.057418 -0.131397 
-0.10208 0.0672757 -0.132142 -0.0539359 0.0664041 -0.132388 -0.127336 0.0887334 -0.131567 
-0.144452 0.0571777 -0.124781 -0.0401303 0.0595127 -0.123332 -0.0558105 0.0666722 -0.121921 
-0.00662951 0.0684795 -0.123326 -0.115667 0.0569546 -0.116588 -0.106441 0.0570894 -0.112395 
-0.0358407 0.0584744 -0.113221 -0.0152062 0.0551472 -0.114392 -0.00710677 0.0604662 -0.117421 
-0.0800965 0.0747102 -0.11248 -0.0920197 0.0589174 -0.109119 -0.0257171 0.0558104 -0.107289 
-0.058478 0.0684154 -0.106011 -0.00362857 0.0672391 -0.110886 -0.0332828 0.0711831 -0.107044 
-0.0809857 0.110691 -0.111756 -0.0201976 0.0679329 -0.0993297 -0.0597434 0.0840231 -0.105018 
-0.0376925 0.110597 -0.103091 -0.100784 0.0593807 -0.0898361 -0.00122025 0.0600811 -0.0937138 
-0.0857106 0.0729056 -0.0955692 -0.0427013 0.0727088 -0.0920556 -0.0266568 0.0762313 -0.0950145 
-0.109438 0.0559118 -0.0846135 -0.068972 0.0790078 -0.086999 -0.0862438 0.100778 -0.0889079 
-0.0259 0.124103 -0.00281997 -0.051051 0.128712 -0.082834 -0.104366 0.13931 -0.0838749 
-0.00872217 0.0603768 -0.0787183 -0.123232 0.0701886 -0.076568 -0.0452624 0.0745008 -0.0742379 
-0.135182 0.0920755 -0.0768119 -0.142134 0.0607744 -0.0663509 -0.10841 0.0582867 -0.067846 
-0.0848825 0.0815161 -0.0727564 -0.0627174 0.105571 -0.068225 -0.115326 0.12504 -0.0710432 
-0.0421011 0.057621 -0.0644617 -0.0456754 0.0767553 -0.0626851 -0.117369 0.0830691 -0.0621167 
-0.0596536 0.0876791 -0.0634012 -0.0225666 0.122976 -0.0611497 -0.0145945 0.0595691 -0.0571452 
-0.128255 0.0589259 -0.0466635 -0.104663 0.0611506 -0.0459271 -0.00726524 0.0553778 -0.0452126 
-0.0758148 0.0646752 -0.0484673 -0.00134084 0.0626714 -0.0518319 -0.0825843 0.114229 -0.0482633 
-0.0121782 0.122389 -0.05243 -0.0529626 0.130983 -0.0495144 -0.0902925 0.067861 -0.0424215 
-0.000609509 0.0634015 -0.041595 -0.0702331 0.0688528 -0.0396808 -0.0582395 0.0573892 -0.0384008 
-0.0782553 0.061674 -0.0387246 -0.0562631 0.078894 -0.031776 -0.104349 0.0900129 -0.0326997 
-0.127583 0.107603 -0.030798 -0.0779115 0.0550118 -0.0286008 -0.104411 0.0642706 -0.0231983 
-0.0682128 0.0563754 -0.020812 -0.0572563 0.0594662 -0.0168216 -0.0747833 0.0641028 -0.0221266 
-0.0705344 0.0732957 -0.0207898 -0.0488331 0.0863689 -0.019761 -0.0791994 0.0569045 -0.00848354 
-0.0876262 0.0674587 -0.01139 -0.0621429 0.0716183 -0.0155164 -0.0166954 0.124388 -0.0111439 
-0.131664 0.0597944 -0.00741515 -0.100433 0.0558026 -0.00287678 -0.0323588 0.0609847 -0.000748808 
-0.124544 0.0709772 -0.00530992 -0.0420776 0.0930551 -0.00115547 -0.0208667 0.0877859 -0.0010617 
-0.117195 0.0562941 0.00699511 -0.0899508 0.0556793 0.00266342 -0.0758409 0.0553737 0.00141445 
-0.0616169 0.0579745 0.000861785 -0.0409884 0.0568659 0.00219925 -0.1434 0.0654299 0.000891852 
-0.107864 0.0618282 0.00228315 -0.0870446 0.0685763 0.00205355 -0.132819 0.0761167 0.00172211 
-0.0966423 0.0730168 0.0057851 -0.00081247 0.0706452 0.00514633 -0.00459803 0.0971128 0.00142669 
-0.144982 0.0559032 0.01263 -0.0918296 0.0564295 0.0150605 -0.0627003 0.0571604 0.0110493 
-0.136349 0.0642063 0.00911519 -0.113462 0.0667519 0.0090313 -0.100338 0.0625393 0.0104193 
-0.0533878 0.0690008 0.0098571 -0.00946603 0.065992 0.00704365 -0.0870651 0.0706965 0.0126303 
-0.129527 0.0595095 0.0163857 -0.118296 0.0587257 0.018081 -0.0805452 0.0579882 0.0185298 
-0.0566696 0.0549375 0.0197867 -0.0232595 0.0568267 0.0175414 -0.0132248 0.0585825 0.0154717 
-0.0407425 0.0717434 0.0210441 -0.140982 0.0552833 0.0258937 -0.0444828 0.0609543 0.0258204 
-0.135155 0.0669875 0.0242843 -0.121743 0.0651424 0.028126 -0.022253 0.0687066 0.0272319 
-0.0866315 0.0998219 0.0242843 -0.0517513 0.133815 0.0257522 -0.142878 0.0599619 0.0383476 
-0.11655 0.0568767 0.0347671 -0.0938245 0.0552246 0.0322744 -0.0650763 0.0553015 0.0325806 
-0.0465569 0.0571875 0.0380405 -0.0923848 0.0781512 0.0330745 -0.0426336 0.0743338 0.0366943 
-0.102358 0.101337 0.0357264 -0.00394178 0.0578568 0.0429571 -0.125277 0.0709931 0.0438232 
-0.0660782 0.113412 0.0377727 -0.0156937 0.055743 0.0462486 -0.144546 0.0631777 0.0518808 
-0.0760696 0.0673084 0.0512332 -0.126287 0.0809425 0.0506658 -0.0994914 0.104942 0.0495696 
-0.0895579 0.109201 0.0455955 -0.0906875 0.168357 0.0519781 -0.0835723 0.0595357 0.0551435 
-0.0483201 0.0583879 0.0570225 -0.0677831 0.0705224 0.0577658 -0.113394 0.0856993 0.0564024 
-0.0401407 0.103992 0.0590509 -0.117543 0.0593756 0.0613304 -0.00451736 0.0597176 0.0610628 
-0.106768 0.120594 0.062131 -0.0515694 0.129321 0.0621647 -0.139719 0.122673 0.0708421 
-0.129789 0.118541 0.074139 -0.0517667 0.125518 0.0723726 -0.0733635 0.0603229 0.0800948 
-0.0111109 0.073664 0.0777443 -0.0924579 0.0800688 0.0785784 -0.128564 0.0851947 0.0830799 
-0.0419295 0.087588 0.0878081 -0.141346 0.110481 0.0840536 -0.0260893 0.114743 0.0825724 
-0.120296 0.122903 0.0836254 -0.059334 0.0783982 0.091374 -0.11166 0.0932383 0.0912588 
-0.0169162 0.0963347 0.0973861 -0.12113 0.0869235 0.100351 -0.0766015 0.0812622 0.101593 
-0.0290029 0.0813639 0.10113 -0.0671763 0.0888068 0.0986458 -0.140335 0.103678 0.104455 
-0.0811784 0.111892 0.100197 -0.0294166 0.121668 0.100716 -0.0579876 0.066596 0.111846 
-0.063361 0.0792327 0.110824 -0.00535652 0.0644571 0.1144 -0.109689 0.0849288 0.113555 
-0.0419714 0.0937871 0.114488 -0.0290924 0.0964124 0.112785 -0.0356284 0.0583623 0.125478 
-0.0679185 0.0707874 0.1285 -0.0502272 0.0779805 0.123281 -0.132063 0.0895036 0.121127 
-0.124558 0.0806047 0.130544 -0.10872 0.0834442 0.130223 -0.0330392 0.0586656 0.139091 
-0.109603 0.0682923 0.142104 -0.0719764 0.070028 0.142212 -0.0595165 0.0860689 0.140724 
-0.0482916 0.096277 0.136391 -0.0793042 0.0573889 0.143502 -0.0418647 0.0570168 0.1446 
-0.0730619 0.118306 0.14493 0.0142777 0.0558631 -0.144153 0.0420864 0.05972 -0.142953 
0.122034 0.0567372 -0.143441 0.0110423 0.0665477 -0.143283 0.0226349 0.0616963 -0.144983 
0.0164291 0.0752259 -0.143091 0.105911 0.0784708 -0.144363 0.142114 0.0712325 -0.144356 
0.137853 0.0839021 -0.144468 0.00326399 0.0556797 -0.14024 0.0313535 0.0568802 -0.141015 
0.0583085 0.0623059 -0.141107 0.0794793 0.0610082 -0.139679 0.0477221 0.0680554 -0.141717 
0.0297979 0.0700169 -0.137251 0.0207265 0.0611574 -0.134331 0.0417234 0.0597663 -0.131929 
0.10358 0.0608866 -0.132536 0.125064 0.0562307 -0.133073 0.0329277 0.064991 -0.128706 
0.0526268 0.0665272 -0.127968 0.0144958 0.0689274 -0.129668 0.142525 0.0556407 -0.124172 
0.0271235 0.0677531 -0.120292 0.083748 0.06758 -0.124233 0.0936636 0.0705896 -0.122908 
0.119702 0.0797137 -0.122737 0.0284169 0.0570645 -0.113784 0.0698232 0.0567971 -0.119557 
0.00631363 0.0617247 -0.116268 0.100688 0.0850688 -0.119156 0.0313665 0.087258 -0.112497 
0.0435387 0.0565684 -0.106867 0.0216363 0.0691723 -0.104215 0.0390933 0.078684 -0.109198 
0.118018 0.0958626 -0.105104 0.00426239 0.0621755 -0.104828 0.0870952 0.0567147 -0.0995044 
0.0310975 0.0645642 -0.103437 0.0600784 0.0698869 -0.105185 0.0767459 0.0870793 -0.102179 
0.023299 0.0549924 -0.0962253 0.0499182 0.0557057 -0.0962692 0.0606225 0.0599414 -0.0952743 
0.104423 0.0560825 -0.095323 0.113525 0.0582455 -0.0907551 0.0319616 0.0651507 -0.0908197 
0.0512669 0.0741925 -0.0950505 0.105518 0.0760316 -0.0905104 0.0265612 0.0861152 -0.090947 
0.136241 0.090853 -0.0935583 0.0527819 0.0621911 -0.0869896 0.0444181 0.0815528 -0.087973 
0.0784642 0.0936663 -0.0865253 0.0896668 0.0961207 -0.0893562 0.0701881 0.058648 -0.0744156 
0.0135742 0.0624452 -0.0812639 0.0609641 0.0630753 -0.0788066 0.0934892 0.0698193 -0.0811752 
0.0216837 0.0565801 -0.069531 0.0416664 0.0657911 -0.0748144 0.106236 0.0855192 -0.0701936 
0.0623147 0.0902947 -0.0688382 0.0791698 0.0953937 -0.0728909 0.0410262 0.0618526 -0.0547732 
0.0228464 0.0641448 -0.0543454 0.0545438 0.0668739 -0.061433 0.0289642 0.0763913 -0.0530495 
0.0853605 0.0936457 -0.0564998 0.0658769 0.103003 -0.0533412 0.116199 0.0973545 -0.0556875 
0.0153638 0.0733187 -0.0473645 0.0397829 0.0832415 -0.0463868 0.0536423 0.0879038 -0.0510153 
0.0457452 0.0584924 -0.0435402 0.126835 0.0605616 -0.0429369 0.144676 0.0611072 -0.0430317 
0.0575834 0.0708389 -0.0423585 0.135121 0.0773661 -0.0381644 0.0682017 0.0856578 -0.0405514 
0.0841556 0.0940197 -0.0398277 0.0139032 0.101288 -0.0411986 0.136821 0.0654344 -0.0349724 
0.0542805 0.0747805 -0.0307121 0.0374227 0.114165 -0.034198 0.0322987 0.0550166 -0.0307128 
0.0190593 0.074607 -0.0269863 0.0491063 0.115092 -0.0262004 0.0949899 0.0635323 -0.0205466 
0.143738 0.0631587 -0.0169032 0.00568533 0.071565 -0.0188024 0.100767 0.0721808 -0.0200146 
0.106956 0.0614882 -0.00911354 0.0557223 0.0781211 -0.0139901 0.141649 0.0775497 -0.0137193 
0.0823129 0.079219 -0.0141785 0.0420412 0.0563946 -0.00115876 0.0503277 0.0654536 -0.00243569 
0.0628222 0.0647266 -0.00373647 0.0817719 0.0699007 -0.00126215 0.0628279 0.0815785 -0.00544294 
0.144521 0.0835213 -0.00462536 0.0143219 0.0917137 -0.000856329 0.127346 0.0915549 -0.00868448 
0.00051222 0.0950169 -0.0846877 0.0533119 0.0553266 0.00280672 0.123904 0.0558262 0.00256765 
0.117922 0.0642568 0.00745005 0.0199646 0.0990824 0.00686914 0.074851 0.0553336 0.00927534 
0.130119 0.0585661 0.0126222 0.0903166 0.068117 0.0135893 0.139303 0.0651216 0.00873467 
0.0247274 0.0730174 0.011632 0.0498851 0.0566716 0.0175875 0.102396 0.0580747 0.0193459 
0.114353 0.0564647 0.0200102 0.0969779 0.0703025 0.0211573 0.00341229 0.087101 0.0192034 
0.106082 0.0967353 0.017208 0.0611378 0.0620466 0.0268154 0.0736843 0.0608515 0.0230562 
0.0927821 0.0570006 0.0222978 0.0253832 0.0760717 0.023872 0.0126543 0.0563386 0.0367351 
0.0818197 0.0613328 0.0355701 0.0924547 0.0581336 0.0336637 0.102867 0.0562884 0.031459 
0.135079 0.057631 0.0344355 0.0425663 0.0685239 0.0361316 0.100275 0.0731858 0.0329772 
0.119686 0.0556563 0.0391213 0.130565 0.0584037 0.0446158 0.144099 0.0619339 0.0410508 
0.0184896 0.0691379 0.0381836 0.0315408 0.105445 0.0388376 0.105014 0.103283 0.0436025 
0.025661 0.0613446 0.046515 0.0587746 0.0557062 0.0519189 0.0831579 0.0569007 0.0451792 
0.109826 0.0598455 0.0500653 0.0644751 0.0672057 0.0473299 0.00162573 0.0657403 0.0546801 
0.117355 0.0666419 0.0588192 0.0562908 0.0717815 0.0506995 0.0852251 0.072965 0.0569815 
0.00112454 0.097702 0.0532663 0.0415878 0.0999134 0.059409 0.000582045 0.092304 0.06355 
0.0997189 0.116252 0.0671603 0.00947696 0.0612661 0.0708151 0.0660057 0.055634 0.0705096 
0.0949846 0.0691712 0.0720738 0.135622 0.0636227 0.0721277 0.0390629 0.0743599 0.0752603 
0.10745 0.0724539 0.0761879 0.136039 0.0899511 0.068566 0.135182 0.10956 0.0714362 
0.108298 0.123724 0.0738251 0.0161197 0.0553517 0.0808392 0.116466 0.0879107 0.0738357 
0.0920823 0.0611677 0.0896379 0.142272 0.067858 0.0839485 0.0399948 0.0878516 0.0876463 
0.087456 0.0963291 0.0898966 0.0453558 0.116995 0.0852915 0.0169112 0.0675126 0.0902121 
0.0242668 0.0911697 0.095322 0.144461 0.0572752 0.100579 0.054587 0.0659733 0.10243 
0.0941075 0.0639683 0.102893 0.125536 0.0691165 0.102271 0.0701465 0.0959499 0.104336 
0.0242384 0.0598593 0.105903 0.0174441 0.0550082 0.11363 0.0231594 0.069229 0.119104 
0.0312171 0.0630964 0.117508 0.137992 0.0654587 0.113937 0.0669663 0.0739896 0.115328 
0.0766716 0.109527 0.117687 0.0433021 0.121233 0.116815 0.0406299 0.0668241 0.122925 
0.0707013 0.0670549 0.121638 0.0142319 0.113461 0.122679 0.127942 0.11615 0.128995 
0.140558 0.0593731 0.138135 0.0748991 0.0651334 0.137141 0.12636 0.0742174 0.141862 
0.0806615 0.084043 0.13981 0.0431011 0.0910499 0.136417 0.00426998 0.129583 0.139551 
0.0236731 0.0700947 0.144325 0.117941 0.0671031 0.144714 0.0141935 0.116859 0.144865 
0.114792 0.124732 0.143241 
VERTICES 401 400
OFFSETS vtktypeint64
0 1 2 3 4 5 6 7 8 
9 10 11 12 13 14 15 16 17 
18 19 20 21 22 23 24 25 26 
27 28 29 30 31 32 33 34 35 
36 37 38 39 40 41 42 43 44 
45 46 47 48 49 50 51 52 53 
54 55 56 57 58 59 60 61 62 
63 64 65 66 67 68 69 70 71 
72 73 74 75 76 77 78 79 80 
81 82 83 84 85 86 87 88 89 
90 91 92 93 94 95 96 97 98 
99 100 101 102 103 104 105 106 107 
108 109 110 111 112 113 114 115 116 
117 118 119 120 121 122 123 124 125 
126 127 128 129 130 131 132 133 134 
135 136 137 138 139 140 141 142 143 
144 145 146 147 148 149 150 151 152 
153 154 155 156 157 158 159 160 161 
162 163 164 165 166 167 168 169 170 
171 172 173 174 175 176 177 178 179 
180 181 182 183 184 185 186 187 188 
189 190 191 192 193 194 195 196 197 
198 199 200 201 202 203 204 205 206 
207 208 209 210 211 212 213 214 215 
216 217 218 219 220 221 222 223 224 
225 226 227 228 229 230 231 232 233 
234 235 236 237 238 239 240 241 242 
243 244 245 246 247 248 249 250 251 
252 253 254 255 256 257 258 259 260 
261 262 263 264 265 266 267 268 269 
270 271 272 273 274 275 276 277 278 
279 280 281 282 283 284 285 286 287 
288 289 290 291 292 293 294 295 296 
297 298 299 300 301 302 303 304 305 
306 307 308 309 310 311 312 313 314 
315 316 317 318 319 320 321 322 323 
324 325 326 327 328 329 330 331 332 
333 334 335 336 337 338 339 340 341 
342 343 344 345 346 347 348 349 350 
351 352 353 354 355 356 357 358 359 
360 361 362 363 364 365 366 367 368 
369 370 371 372 373 374 375 376 377 
378 379 380 381 382 383 384 385 386 
387 388 389 390 391 392 393 394 395 
396 397 398 399 400 
CONNECTIVITY vtktypeint64
0 1 2 3 4 5 6 7 8 
9 10 11 12 13 14 15 16 17 
18 19 20 21 22 23 24 25 26 
27 28 29 30 31 32 33 34 35 
36 37 38 39 40 41 42 43 44 
45 46 47 48 49 50 51 52 53 
54 55 56 57 58 59 60 61 62 
63 64 65 66 67 68 69 70 71 
72 73 74 75 76 77 78 79 80 
81 82 83 84 85 86 87 88 89 
90 91 92 93 94 95 96 97 98 
99 100 101 102 103 104 105 106 107 
108 109 110 111 112 113 114 115 116 
117 118 119 120 121 122 123 124 125 
126 127 128 129 130 131 132 133 134 
135 136 137 138 139 140 141 142 143 
144 145 146 147 148 149 150 151 152 
153 154 155 156 157 158 159 160 161 
162 163 164 165 166 167 168 169 170 
171 172 173 174 175 176 177 178 179 
180 181 182 183 184 185 186 187 188 
189 190 191 192 193 194 195 196 197 
198 199 200 201 202 203 204 205 206 
207 208 209 210 211 212 213 214 215 
216 217 218 219 220 221 222 223 224 
225 226 227 228 229 230 231 232 233 
234 235 236 237 238 239 240 241 242 
243 244 245 246 247 248 249 250 251 
252 253 254 255 256 257 258 259 260 
261 262 263 264 265 266 267 268 269 
270 271 272 273 274 275 276 277 278 
279 280 281 282 283 284 285 286 287 
288 289 290 291 292 293 294 295 296 
297 298 299 300 301 302 303 304 305 
306 307 308 309 310 311 312 313 314 
315 316 317 318 319 320 321 322 323 
324 325 326 327 328 329 330 331 332 
333 334 335 336 337 338 339 340 341 
342 343 344 345 346 347 348 349 350 
351 352 353 354 355 356 357 358 359 
360 361 362 363 364 365 366 367 368 
369 370 371 372 373 374 375 376 377 
378 379 380 381 382 383 384 385 386 
387 388 389 390 391 392 393 394 395 
396 397 398 399 
POINT_DATA 400
FIELD FieldData 8
id 1 400 int
3781 3745 3994 2648 3970 3937 3801 3744 3884 
3931 2755 3773 3823 3023 3726 3959 3894 2739 
3785 3586 2901 3987 3917 3907 3024 3296 3903 
3749 3981 3757 3960 3844 3943 3180 3685 3852 
3830 3025 3873 3403 3858 3802 3734 3814 3766 
3359 3242 3711 3727 3976 3824 3134 2756 3740 
3731 3716 3686 2823 3297 2961 3949 3767 3026 
3405 3774 3243 3908 3404 3877 3853 3758 2962 
3932 2749 3687 3181 2825 3786 2482 2824 3808 
3360 3809 3878 3759 3918 3135 3961 3787 3919 
3996 3895 3938 3939 3995 3133 3896 3885 3835 
3815 3845 3244 2902 3720 3746 3975 3782 3925 
3182 3971 3920 3909 3263 3519 3688 3631 3962 
3982 3950 3831 3940 3879 3988 3825 3803 3775 
3747 3810 2963 3846 3836 3406 3955 3854 3587 
3794 3816 3863 3760 3768 3788 3461 3951 3989 
3783 3298 3728 3735 3847 3721 3910 3941 3769 
2826 3027 3911 3136 3761 3859 3795 3864 3871 
3299 2757 3245 3407 2964 3754 3765 3904 3776 
3898 3736 3588 3183 3874 3865 3817 3886 3837 
2509 3880 3804 3748 2649 3963 3997 3983 3933 
3866 3855 3954 3956 3984 3887 3921 3897 3977 
3729 3875 3632 3690 3689 3848 3722 3899 3161 
3934 3927 3849 3952 3942 3876 3905 3972 3818 
3811 3900 3838 3789 3964 2927 3741 3717 3762 
3860 3978 3867 3922 3440 3957 3965 3888 2989 
3730 3944 3796 3665 3208 2867 3839 3819 3945 
3770 3784 3985 3737 2748 3755 3812 3869 3889 
3856 3712 3691 3868 2591 3840 3826 3666 3777 
2481 3162 3441 3805 3881 3386 3262 3832 3999 
3763 3778 3891 3841 3813 3827 3915 3929 3797 
3385 2483 3850 3806 2751 3928 3842 2750 3946 
3613 3713 3966 3990 3518 3324 3890 3738 3923 
3851 3973 3913 3614 3714 3991 3723 3870 3901 
3912 3882 3771 3793 3779 3914 3828 3084 3764 
3791 3820 3442 2790 3790 3692 2690 3732 3953 
3742 3750 3667 3718 3986 3926 3892 3974 3979 
3947 3668 3998 2928 3751 3715 3924 3756 3807 
3719 3861 3916 3833 3739 3906 3930 2484 4000 
3834 3821 3862 3520 3325 3993 3980 3958 3798 
3902 3780 3752 3209 3843 3799 2868 3326 3443 
3829 2752 3857 3743 3772 3872 3968 3992 3822 
2550 3792 3969 3883 3733 3800 3753 3521 2753 
3725 3694 3724 3444 3935 3693 3948 3893 2754 
3967 3936 2990 3163 
type 1 400 int
2 2 2 2 2 2 2 2 2 
2 2 2 2 2 2 2 2 2 
2 2 2 2 2 2 2 2 2 
2 2 2 2 2 2 2 2 2 
2 2 2 2 2 2 2 2 2 
2 2 2 2 2 2 2 2 2 
2 2 2 2 2 2 2 2 2 
2 2 2 2 2 2 2 2 2 
2 2 2 2 2 2 2 2 2 
2 2 2 2 2 2 2 2 2 
2 2 2 2 2 2 2 2 2 
2 2 2 2 2 2 2 2 2 
2 2 2 2 2 2 2 2 2 
2 2 2 2 2 2 2 2 2 
2 2 2 2 2 2 2 2 2 
2 2 2 2 2 2 2 2 2 
2 2 2 2 2 2 2 2 2 
2 2 2 2 2 2 2 2 2 
2 2 2 2 2 2 2 2 2 
2 2 2 2 2 2 2 2 2 
2 2 2 2 2 2 2 2 2 
2 2 2 2 2 2 2 2 2 
2 2 2 2 2 2 2 2 2 
2 2 2 2 2 2 2 2 2 
2 2 2 2 2 2 2 2 2 
2 2 2 2 2 2 2 2 2 
2 2 2 2 2 2 2 2 2 
2 2 2 2 2 2 2 2 2 
2 2 2 2 2 2 2 2 2 
2 2 2 2 2 2 2 2 2 
2 2 2 2 2 2 2 2 2 
2 2 2 2 2 2 2 2 2 
2 2 2 2 2 2 2 2 2 
2 2 2 2 2 2 2 2 2 
2 2 2 2 2 2 2 2 2 
2 2 2 2 2 2 2 2 2 
2 2 2 2 2 2 2 2 2 
2 2 2 2 2 2 2 2 2 
2 2 2 2 2 2 2 2 2 
2 2 2 2 2 2 2 2 2 
2 2 2 2 2 2 2 2 2 
2 2 2 2 2 2 2 2 2 
2 2 2 2 2 2 2 2 2 
2 2 2 2 2 2 2 2 2 
2 2 2 2 
i 3 400 int
0 0 0 0 0 0 0 0 0 
0 0 0 0 0 0 0 0 0 
0 0 0 0 0 0 0 0 0 
0 0 0 0 0 0 0 0 0 
0 0 0 0 0 0 0 0 0 
0 0 0 0 0 0 0 0 0 
0 0 0 0 0 0 0 0 0 
0 0 0 0 0 0 0 0 0 
0 0 0 0 0 0 0 0 0 
0 0 0 0 0 0 0 0 0 
0 0 0 0 0 0 0 0 0 
0 0 0 0 0 0 0 0 0 
0 0 0 0 0 0 0 0 0 
0 0 0 0 0 0 0 0 0 
0 0 0 0 0 0 0 0 0 
0 0 0 0 0 0 0 0 0 
0 0 0 0 0 0 0 0 0 
0 0 0 0 0 0 0 0 0 
0 0 0 0 0 0 0 0 0 
0 0 0 0 0 0 0 0 0 
0 0 0 0 0 0 0 0 0 
0 0 0 0 0 0 0 0 0 
0 0 0 0 0 0 0 0 0 
0 0 0 0 0 0 0 0 0 
0 0 0 0 0 0 0 0 0 
0 0 0 0 0 0 0 0 0 
0 0 0 0 0 0 0 0 0 
0 0 0 0 0 0 0 0 0 
0 0 0 0 0 0 0 0 0 
0 0 0 0 0 0 0 0 0 
0 0 0 0 0 0 0 0 0 
0 0 0 0 0 0 0 0 0 
0 0 0 0 0 0 0 0 0 
0 0 0 0 0 0 0 0 0 
0 0 0 0 0 0 0 0 0 
0 0 0 0 0 0 0 0 0 
0 0 0 0 0 0 0 0 0 
0 0 0 0 0 0 0 0 0 
0 0 0 0 0 0 0 0 0 
0 0 0 0 0 0 0 0 0 
0 0 0 0 0 0 0 0 0 
0 0 0 0 0 0 0 0 0 
0 0 0 0 0 0 0 0 0 
0 0 0 0 0 0 0 0 0 
0 0 0 0 0 0 0 0 0 
0 0 0 0 0 0 0 0 0 
0 0 0 0 0 0 0 0 0 
0 0 0 0 0 0 0 0 0 
0 0 0 0 0 0 0 0 0 
0 0 0 0 0 0 0 0 0 
0 0 0 0 0 0 0 0 0 
0 0 0 0 0 0 0 0 0 
0 0 0 0 0 0 0 0 0 
0 0 0 0 0 0 0 0 0 
0 0 0 0 0 0 0 0 0 
0 0 0 0 0 0 0 0 0 
0 0 0 0 0 0 0 0 0 
0 0 0 0 0 0 0 0 0 
0 0 0 0 0 0 0 0 0 
0 0 0 0 0 0 0 0 0 
0 0 0 0 0 0 0 0 0 
0 0 0 0 0 0 0 0 0 
0 0 0 0 0 0 0 0 0 
0 0 0 0 0 0 0 0 0 
0 0 0 0 0 0 0 0 0 
0 0 0 0 0 0 0 0 0 
0 0 0 0 0 0 0 0 0 
0 0 0 0 0 0 0 0 0 
0 0 0 0 0 0 0 0 0 
0 0 0 0 0 0 0 0 0 
0 0 0 0 0 0 0 0 0 
0 0 0 0 0 0 0 0 0 
0 0 0 0 0 0 0 0 0 
0 0 0 0 0 0 0 0 0 
0 0 0 0 0 0 0 0 0 
0 0 0 0 0 0 0 0 0 
0 0 0 0 0 0 0 0 0 
0 0 0 0 0 0 0 0 0 
0 0 0 0 0 0 0 0 0 
0 0 0 0 0 0 0 0 0 
0 0 0 0 0 0 0 0 0 
0 0 0 0 0 0 0 0 0 
0 0 0 0 0 0 0 0 0 
0 0 0 0 0 0 0 0 0 
0 0 0 0 0 0 0 0 0 
0 0 0 0 0 0 0 0 0 
0 0 0 0 0 0 0 0 0 
0 0 0 0 0 0 0 0 0 
0 0 0 0 0 0 0 0 0 
0 0 0 0 0 0 0 0 0 
0 0 0 0 0 0 0 0 0 
0 0 0 0 0 0 0 0 0 
0 0 0 0 0 0 0 0 0 
0 0 0 0 0 0 0 0 0 
0 0 0 0 0 0 0 0 0 
0 0 0 0 0 0 0 0 0 
0 0 0 0 0 0 0 0 0 
0 0 0 0 0 0 0 0 0 
0 0 0 0 0 0 0 0 0 
0 0 0 0 0 0 0 0 0 
0 0 0 0 0 0 0 0 0 
0 0 0 0 0 0 0 0 0 
0 0 0 0 0 0 0 0 0 
0 0 0 0 0 0 0 0 0 
0 0 0 0 0 0 0 0 0 
0 0 0 0 0 0 0 0 0 
0 0 0 0 0 0 0 0 0 
0 0 0 0 0 0 0 0 0 
0 0 0 0 0 0 0 0 0 
0 0 0 0 0 0 0 0 0 
0 0 0 0 0 0 0 0 0 
0 0 0 0 0 0 0 0 0 
0 0 0 0 0 0 0 0 0 
0 0 0 0 0 0 0 0 0 
0 0 0 0 0 0 0 0 0 
0 0 0 0 0 0 0 0 0 
0 0 0 0 0 0 0 0 0 
0 0 0 0 0 0 0 0 0 
0 0 0 0 0 0 0 0 0 
0 0 0 0 0 0 0 0 0 
0 0 0 0 0 0 0 0 0 
0 0 0 0 0 0 0 0 0 
0 0 0 0 0 0 0 0 0 
0 0 0 0 0 0 0 0 0 
0 0 0 0 0 0 0 0 0 
0 0 0 0 0 0 0 0 0 
0 0 0 0 0 0 0 0 0 
0 0 0 0 0 0 0 0 0 
0 0 0 0 0 0 0 0 0 
0 0 0 0 0 0 0 0 0 
0 0 0 0 0 0 0 0 0 
0 0 0 0 0 0 0 0 0 
0 0 0 0 0 0 0 0 0 
0 0 0 
v 3 400 double
0.0050523546102 0.023168733663 0.011128003356 -0.004622119405 0.022222814824 0.019925974009 -0.015886625175 0.1689276257 -0.019700866 
-0.027173646627 0.011902077028 0.021408443641 0.029813532571 0.26065309328 0.0031617171548 0.00042695319134 0.13846042764 0.029105660503 
0.010048934566 -0.00070430313784 0.0034683114765 -0.16699740911 0.063356798937 -0.041213788474 0.0044257893845 0.32210142731 -0.021404986126 
-0.080920948392 -0.042132875242 0.070212812582 -0.030094895126 -0.052927071231 0.046797190941 -0.014669051972 0.098089901573 0.15276819269 
-0.027682094838 0.035560805087 0.07204171858 -0.032235806057 0.015450186834 0.090000174597 0.088754276994 0.22662720955 0.01755179333 
-0.00066328633309 0.27334262606 0.093316999735 -0.012522403547 -0.044939490889 -0.012740638916 0.05465695248 0.035661200456 0.002522766496 
-0.044717966955 -0.13368536931 0.09486291134 -0.28740901424 0.024229724479 0.0046663801205 0.019798951085 0.040401127349 0.0076420378047 
-0.031250205073 0.21919385107 0.082559184695 -0.078830096885 0.05744859893 0.00019912973901 0 0.410001241 0 
0.014992955642 -0.025645243798 0.04215090128 0.012718550083 0.067616469755 0.01425317236 0.035121297983 0.12847363527 0.096812815135 
-0.18926525092 -0.022427296612 -0.018868698313 0.28898642724 0.079974303572 0.068668592717 -0.013829896255 0.087291944083 0.056578682595 
-0.097092786944 0.060812066546 0.13240196031 -0.03578214389 -0.03362389344 0.036768811461 -0.026271986133 0.1361625238 0.077842166689 
-0.005644904192 0.11634111591 0.004857108426 0.12933529232 0.042588217061 0.051919416551 -0.024108631974 0.052866387327 -0.0092589620461 
-0.02568388976 0.17898130461 0.043235618101 0.16435589771 0.13160926834 0.04879980192 0.043607323651 0.16495006551 0.26241097703 
-0.0096575554909 0.27005267014 0.0080604148417 0.1383727102 0.10081244027 -0.098310755058 -0.040956546694 0.26237529859 -0.077021290032 
0 0.39896583638 0 0.11795535952 0.0097730096812 0.18953233749 0.099974090402 0.01044452285 0.084876551395 
-0.097613623005 0.14261836488 -0.069878233524 8.7304082862e-05 0.05658216547 0.0490846904 0.06834161746 0.16119004743 -0.1214087638 
-0.023683525094 0.038479039595 0.077669425022 -0.00010155981897 0.4026845298 0.00010091191765 0 0.4099646538 0 
0.0017389604782 0.39882328398 -0.0017389604782 0 0.39895779965 -0.0048950405667 -0.013439671783 0.51232874696 -0.080587636658 
-0.12936023577 -0.043487840632 0.063024878278 -0.21182349314 0.046633813357 -0.020952048906 -0.082935369571 0.12454513688 0.22031739751 
0.048239276178 0.099225294711 0.24497616456 0.028135713549 -0.096028905037 0.39390411585 -0.031545988205 0.03808721382 0.20551580488 
0 0.39875905054 0 -0.004507024569 0.40045571211 -0.019038581245 -1.4485258125e-05 0.39873630553 -3.634419112e-05 
0.32876983248 -0.031845621495 -0.32283421205 0.1287683514 0.19121853907 0.11076579337 0.0073616794846 0.22860097262 0.0056379145434 
-0.21558529215 -0.019513045433 -0.17941226195 0.013750131286 0.41310435568 -0.010249234026 -0.051741169069 0.04058371722 -0.053836692909 
0.16177005642 -0.07644656374 -0.00059768219633 0.21273066105 0.083784470045 0.0040210919325 0.042840578702 -0.12831914724 0.020785541927 
0.1798539911 0.19236844709 0.15816500153 -0.035862658324 0.090291244517 0.064308977049 0 0.39374558319 -0.0047274651976 
-0.0006249839803 0.39654364795 -0.0035443033661 0 0.41049660782 0 0.16516498594 -0.03766484776 0.11888971262 
-0.019593090008 0.057115403233 0.099738465183 -0.052616715986 -0.066019064066 -0.15140221691 0.022134701501 0.099469048355 -0.23615431165 
-0.10463700881 -0.09401554567 -0.18572435433 0.10261538139 0.024450565892 0.019208162786 0 0.39904491296 0 
0 0.40508628054 1.1391752074e-05 0.0071542694571 0.0097579034233 -0.10906964922 -0.14104871598 0.066372794091 -0.059408977745 
0.13907661299 -0.070044692866 -0.10137840544 0.024725401975 0.083038042692 -0.060573489246 0.16391693116 0.0029887343181 -0.044076204173 
0.021289603685 0.11913951638 0.17361241356 0 0.38773520475 0 0.027299067379 0.039904766088 -0.010931840784 
-0.016476201133 0.099454444818 -0.084306564822 0.1390817071 0.072299369939 -0.17914983746 -0.0030995011966 0.4005287818 -0.0015598553611 
0.045844753257 0.11028899352 -0.1898000073 -0.046716239386 0.008393984018 -0.03300470256 0.14934816722 0.038916575791 0.17108908232 
-0.14770044765 0.17433285824 -0.010388830832 -0.018713004647 0.38875185117 7.8913229596e-15 -0.011140416409 0.097767829241 -0.12921837017 
-0.020323614644 0.090368614653 -0.0031792288935 -0.046082577918 0.018225688334 0.024099985736 -0.020268697837 0.015027426483 -0.025738033806 
0.13380049924 -0.012096676231 0.09447856496 0.013701674857 -0.12802088574 0.049799312429 0.040199520073 -0.095870598549 -0.086165661967 
-0.046634918245 -0.00040446379615 -0.042702985677 -0.081684893755 -0.022103683302 -0.017092402979 -0.11868926291 0.18694444968 -0.13538814845 
-0.093883439559 0.14252171153 0.082969879669 0.0076454314498 0.10692208556 -0.019647122656 -0.026301618679 0.19420349068 -0.026301618679 
0.00013890668406 -0.085551977327 -0.0023997154036 -0.046054797591 0.035397971386 0.092164701031 0.12820438401 -0.078444085544 -0.032905704211 
0.032029345529 -0.029687535858 -0.025265408889 -0.01500191703 -0.020986545259 0.031023929194 -0.04239299415 0.032731008683 -0.025360640441 
0.058087612515 0.020893658911 0.057573748421 -0.033229108723 0.13146619811 -0.072439225811 -0.029513261594 0.16173266479 0.02841832475 
0.020843683995 0.062954747489 -0.02526832503 -0.035287073814 0.050609594592 0.022602434066 -0.021958819501 0.054191597684 0.048298013441 
0.020761297967 0.021829717775 0.020996549044 0.10233813382 -0.057334312558 0.036009067924 0.08384646776 0.068416862212 0.012924444158 
0.13707801014 0.10385176188 0.11392848556 0.059680260923 -0.0043191316277 -0.0088384705466 0.1075239518 0.021635070801 0.091420686529 
0.024759942221 0.078324211804 0.044473428344 -0.065001341762 0.019554148352 0.081816480773 -0.074711751139 -0.0080621039028 0.03428911449 
-0.0021049833578 0.38899466784 -0.000126565171 0.14839527413 0.58811835358 0.043079860813 0.035405350312 -0.063905926467 0.12156320456 
-0.055878085168 0.018552676409 0.077319089015 0.041737892857 0.0073860254482 0.11542297028 -0.005825329209 -0.088252136972 0.11333458053 
0.17678183662 0.045691837597 0.11687765623 -0.3079784592 0.20546468663 -0.29548681616 -0.00052740355422 0.38710693906 -0.0011288573072 
-0.0020887119363 0.38986351732 -0.0070491576428 0.23813079066 -0.047865985554 0.091128574931 -0.028734807798 0.24194419456 -0.0010331898798 
0 0.41007381017 0 0.082969176585 -0.068900710412 0.098925650489 0.037498491992 -0.098639938923 0.1588119919 
-0.21318374134 0.049912305026 0.14909390704 0.031131950044 0.032706997154 0.10031977015 0.0020429030869 0.39521847008 -0.0010600737839 
-0.0016610994383 0.29654940525 0.0087496036546 -0.0067172086632 0.56567410001 0.037516284279 0.12619151306 -0.030120305532 -0.12723660908 
-0.00044574958215 0.029243049089 0.10201140501 -0.018697854525 0.19836571032 0.034234384001 0.012190777852 0.32929773123 0.012633784709 
0 0.41052549956 0 -0.1805049794 0.05781629622 -0.033949824544 -0.14779536002 -0.036157488346 -0.16420796277 
0 0.39882697079 0 0 0.39925497113 0 0.00056348824668 0.40152978625 0.00027402949384 
0.0023122065005 0.39628274053 0.0023597342796 0 0.39875819248 -0.0097057056303 0.16820795446 0.029549338883 0.12446726565 
-0.076416026534 0.17725342488 -0.024615689046 0.044804293718 0.32049728826 -0.0062287931832 -0.20190154007 0.19481537035 0.026359778761 
0.0002814165965 0.39586236908 -0.0042450652735 0 0.39872827304 0 0 0.38755395842 -0.0050852537353 
-8.0938774001e-06 0.39894161244 0 0.042256730961 0.27150018908 0.1254322865 -0.00036883905222 0.40129851273 -0.0077537456699 
0 0.38761842277 0 0.0012503121485 0.38702661056 -0.005926866043 0.067490180065 0.26525617797 0.16187870525 
-0.0033082998542 0.13377592098 -0.0033247496929 -0.027545708121 0.38422685286 0.11030070993 0 0.41016565709 9.1963837408e-06 
0.0002436659938 0.41148920957 0.0063921664547 -0.0046666478446 0.28784143851 -0.0046798590522 -0.018673129003 0.22509155007 0.014510142177 
-0.053217283839 0.22170666975 -0.058771851548 0.11958812085 0.2582068389 -0.11068487009 0 0.3987994427 6.9043932791e-06 
0.0024336544151 0.40286253151 0.0042270621109 -0.002634341908 0.41110012695 0.0010203462189 -0.012212897362 0.075823784745 -0.18361467497 
-0.081403630411 0.18753371313 0.15957691278 -0.00032362647397 0.39932044177 -0.0012764948875 0.00051441565056 0.39864167423 0.0017178022421 
0.020188320678 0.34687093157 -0.00040929342903 0.086053560792 0.32893311383 -0.0017445639745 0.019328964446 -0.069875921765 -0.12175248855 
-0.30057167303 -0.0057001018753 -0.016076409613 -0.094698718667 0.079663079348 -0.023938982104 -0.099007385536 0.082080622725 -0.049446953515 
0.003430585782 0.26858144658 0.036345321829 -0.10548329414 -0.030831930056 -0.0013404948435 0.14052862254 0.048100854141 0.0025797650296 
-0.23465860515 0.31091122182 0.049620763329 0.0038089287304 0.016674862861 -0.03121638421 -0.02036393762 -0.092023634974 0.0050260398412 