# vtk DataFile Version 5.1
Generated by LIGGGHTS
ASCII
DATASET POLYDATA
POINTS 407 float
-0.140089 0.0557356 -0.143846 -0.116919 0.0554228 -0.14311 -0.0683277 0.0557877 -0.143146 
-0.0967142 0.0647978 -0.144705 -0.143684 0.0697562 -0.144654 -0.091798 0.0752894 -0.144703 
-0.0752609 0.0780413 -0.144612 -0.0504388 0.0971317 -0.144826 -0.112144 0.0620081 -0.136849 
-0.131909 0.0741186 -0.137228 -0.0232654 0.0728936 -0.140711 -0.0283866 0.0880569 -0.135911 
-0.144836 0.0582703 -0.134672 -0.133134 0.0578472 -0.132513 -0.121694 0.0569605 -0.129922 
-0.110928 0.0579595 -0.127101 -0.0704578 0.0565358 -0.130462 -0.0484499 0.0598421 -0.130939 
-0.0586657 0.0698511 -0.132376 -0.00509311 0.0743577 -0.127545 -0.114426 0.0772071 -0.132065 
-0.103955 0.0804273 -0.127189 -0.0233843 0.100183 -0.131088 -0.127336 0.113334 -0.131567 
-0.143552 0.055639 -0.122252 -0.0393671 0.0635697 -0.122477 -0.0180594 0.0707032 -0.125985 
-0.0166962 0.0557038 -0.112526 -0.109703 0.0642917 -0.116761 -0.0537032 0.0743807 -0.116112 
-0.00293112 0.0772699 -0.113699 -0.0958966 0.0597883 -0.104708 -0.0842596 0.0614727 -0.106004 
-0.0271637 0.0589824 -0.107844 -0.00110222 0.0554265 -0.111557 -0.0416663 0.0621232 -0.105276 
-0.00860912 0.0650666 -0.111224 -0.0804352 0.0816906 -0.112188 -0.0622008 0.0997656 -0.109639 
-0.0815652 0.126894 -0.111272 -0.0118952 0.0739817 -0.105228 -0.0915674 0.0814627 -0.0997619 
-0.0600191 0.0791542 -0.103416 -0.0190727 0.0865306 -0.0975915 -0.0376925 0.134535 -0.103091 
-0.03415 0.0804522 -0.0960072 -0.0426961 0.0761037 -0.0891105 -0.0689781 0.103169 -0.0869929 
-0.0862438 0.125376 -0.0889079 -0.051051 0.15265 -0.0831277 -0.105173 0.17005 -0.0887101 
-0.110859 0.0582206 -0.0799533 -0.0937067 0.0599671 -0.0784641 -0.0223749 0.0557103 -0.0838318 
-0.0164838 0.0577676 -0.0749368 -0.135942 0.0729866 -0.0778251 -0.0725887 0.0865083 -0.0741659 
-0.0848825 0.105442 -0.0727564 -0.0629878 0.129599 -0.0693674 -0.115327 0.148965 -0.0710454 
-0.017699 0.0620041 -0.0603754 -0.0502385 0.0819735 -0.0610189 -0.132288 0.098029 -0.0621134 
-0.116928 0.0967852 -0.0617785 -0.0217416 0.147762 -0.0617646 -0.110303 0.0605719 -0.055515 
-0.0749692 0.0703783 -0.0538606 -0.0379493 0.0882284 -0.0560392 -0.0122157 0.146182 -0.0526426 
-0.140446 0.0550127 -0.0427166 -0.118895 0.0551812 -0.0467084 -0.0845335 0.0560331 -0.049868 
-0.00734886 0.0577992 -0.0452333 -0.0918996 0.0661777 -0.0456859 -0.0569114 0.0633573 -0.05257 
-0.0034926 0.0680889 -0.0479733 -0.0825843 0.137854 -0.0485469 -0.0529626 0.155613 -0.0495144 
-0.0774822 0.0555973 -0.035145 -0.0803826 0.0656011 -0.0352881 -0.00178509 0.0668284 -0.0356107 
-0.0634445 0.0707306 -0.0338818 -0.0495906 0.0807885 -0.0317861 -0.104349 0.113956 -0.0326997 
-0.127583 0.131908 -0.0307973 -0.0612224 0.0553353 -0.0263956 -0.112874 0.068253 -0.0267629 
-0.0649398 0.0649984 -0.0247547 -0.0527056 0.0758139 -0.0227983 -0.0163139 0.0742196 -0.0307052 
-0.128914 0.0664118 -0.0188031 -0.0557727 0.0644485 -0.020456 -0.0886148 0.073426 -0.0164484 
-0.0488331 0.109633 -0.019761 -0.0774155 0.0594226 -0.00962407 -0.070865 0.080159 -0.0126776 
-0.0215351 0.093652 -0.0088148 -0.0168814 0.14842 -0.0112375 -0.140988 0.0596777 -0.00427809 
-0.103236 0.0563062 -0.00485706 -0.110662 0.0618039 -0.000279027 -0.131933 0.0813396 -0.00669512 
-0.141413 0.087431 -0.00563931 -0.0432004 0.11638 -0.00115547 -0.0071367 0.110086 -0.00305121 
-0.0257957 0.148033 -0.00292431 -0.119366 0.0589925 0.00622869 -0.0927157 0.0567729 0.00410942 
-0.077203 0.0561516 0.000354783 -0.0516745 0.0556703 0.00156038 -0.0417493 0.0571984 0.00477557 
-0.134804 0.0626665 0.00705418 -0.0919457 0.0672501 0.00102801 -0.0114598 0.07388 0.00269729 
-0.000353744 0.0770605 0.0039675 -0.00797623 0.103245 0.00670047 -0.14473 0.0565984 0.0128636 
-0.0581729 0.055751 0.0119605 -0.113412 0.0682165 0.0114684 -0.102881 0.0645032 0.00889765 
-0.0233979 0.0633197 0.00951654 -0.0499025 0.0702545 0.0133115 -0.102275 0.0815681 0.0107633 
-0.0888359 0.0804005 0.0143354 -0.0945929 0.0585534 0.0205904 -0.0818627 0.0612397 0.0214277 
-0.0180576 0.0555789 0.0195718 -0.129073 0.0628314 0.0154925 -0.119241 0.0619761 0.0193593 
-0.00819401 0.0626875 0.0162472 -0.110864 0.0904791 0.0153453 -0.137401 0.0550241 0.0253634 
-0.054263 0.0560321 0.0231731 -0.0267357 0.0682228 0.0292893 -0.133669 0.071687 0.0269527 
-0.0325178 0.0779745 0.0278798 -0.0867578 0.123162 0.0242767 -0.0428476 0.169103 0.028337 
-0.0656452 0.0569022 0.0359466 -0.125643 0.0663156 0.033035 -0.0380314 0.0622524 0.0313056 
-0.0426653 0.0975602 0.0366266 -0.102483 0.124728 0.0353034 -0.140754 0.0561275 0.0456414 
-0.119903 0.0579899 0.0394062 -0.0913202 0.0556677 0.0391998 -0.03595 0.059929 0.0450531 
-0.127001 0.0855098 0.0437612 -0.0660782 0.138016 0.0377727 -0.0803214 0.0553239 0.0510017 
-0.0147206 0.0553473 0.0457758 -0.0107553 0.067625 0.0488202 -0.0993688 0.128655 0.049506 
-0.0896576 0.126994 0.0461204 -0.00992005 0.0590792 0.0575287 -0.128373 0.0628446 0.0592934 
-0.0848279 0.0741054 0.0569221 -0.12442 0.0829049 0.056685 -0.068905 0.0824244 0.0598199 
-0.112662 0.105457 0.0571605 -0.0401407 0.128624 0.0590509 -0.0892218 0.200449 0.0560978 
-0.142296 0.0572593 0.0614095 -0.0483468 0.0601425 0.0631431 -0.106768 0.144524 0.062131 
-0.0515694 0.153276 0.0621647 -0.139685 0.146765 0.0708586 -0.12965 0.142317 0.0742806 
-0.0517667 0.149443 0.0717902 -0.0156959 0.0842992 0.0762674 -0.0897696 0.0992986 0.0782047 
-0.0260893 0.137997 0.0822673 -0.063271 0.0620958 0.0875628 -0.140678 0.0968836 0.0846615 
-0.0419126 0.11134 0.0875534 -0.141346 0.134405 0.0840536 -0.120297 0.14684 0.0836254 
-0.111682 0.117316 0.0907936 -0.0169162 0.119592 0.0973861 -0.0292014 0.0893904 0.10093 
-0.0567986 0.0946882 0.0988999 -0.121055 0.110145 0.0999959 -0.068829 0.11186 0.105264 
-0.140335 0.128288 0.104456 -0.0811637 0.136582 0.10058 -0.0296966 0.138939 0.100436 
-0.064306 0.0917843 0.108368 -0.0748001 0.0979284 0.110235 -0.0363611 0.0629117 0.114461 
-0.059108 0.0801015 0.112717 -0.109689 0.108857 0.113555 -0.0418253 0.117959 0.114742 
-0.0292505 0.121078 0.112846 -0.0502466 0.10194 0.123205 -0.132032 0.113422 0.12123 
-0.0318804 0.0551335 0.131997 -0.123347 0.101417 0.130519 -0.103557 0.10318 0.130118 
-0.127637 0.0679503 0.141139 -0.0723645 0.0820714 0.135969 -0.065457 0.0909937 0.137757 
-0.0480857 0.112392 0.138571 -0.0856332 0.055539 0.143422 -0.033433 0.0599029 0.144755 
-0.0780965 0.0747758 0.142881 -0.086805 0.134481 0.143898 -0.0929593 0.200449 0.0523603 
-0.0929593 0.200449 0.0560978 -0.0892218 0.200449 0.0523603 -0.0892218 0.204145 0.0560979 
-0.0892218 0.204145 0.0523604 -0.0929593 0.204145 0.0523604 -0.0929593 0.204145 0.0560979 
0.0132826 0.0554521 -0.144851 0.0227016 0.0610902 -0.144884 0.0416567 0.0551054 -0.142617 
0.00778546 0.0665948 -0.143024 0.0919435 0.0681841 -0.145046 0.144908 0.0839908 -0.144187 
0.106067 0.100478 -0.145002 0.131242 0.0983681 -0.144329 0.00718047 0.0565336 -0.136892 
0.0316666 0.056397 -0.139308 0.117517 0.0563503 -0.141524 0.0502851 0.0658166 -0.13867 
0.061758 0.0689126 -0.140152 0.0247446 0.0749267 -0.137345 0.0120275 0.0781503 -0.141079 
0.023807 0.0614169 -0.133386 0.0402448 0.0614901 -0.128709 0.0886645 0.0571526 -0.130807 
0.117877 0.0569103 -0.130869 0.0113826 0.0651971 -0.132882 0.0328112 0.0692386 -0.128912 
0.0560721 0.0707663 -0.127888 0.0965358 0.0851035 -0.132646 0.143489 0.0577853 -0.120444 
0.0886364 0.0729202 -0.12698 0.119759 0.103509 -0.122611 0.0762495 0.0612248 -0.117725 
0.0260474 0.0721366 -0.118861 0.100157 0.109888 -0.118587 0.0308805 0.0571043 -0.108428 
0.0639122 0.0738294 -0.111555 0.0415248 0.0929685 -0.106949 0.0330469 0.0991552 -0.11155 
0.117897 0.119601 -0.105053 0.0389277 0.0576715 -0.102293 0.101371 0.060433 -0.104299 
0.00387637 0.0653127 -0.102175 0.0237544 0.0706512 -0.0970154 0.0676975 0.0868587 -0.105028 
0.0187513 0.0559045 -0.0898663 0.0485886 0.0563916 -0.0893291 0.109972 0.0583487 -0.0898169 
0.0358864 0.0680691 -0.0940745 0.0606927 0.0635718 -0.0949263 0.0591496 0.078583 -0.0961067 
0.0911873 0.110957 -0.0929643 0.136218 0.114334 -0.0935103 0.0047782 0.0607078 -0.0886212 
0.125926 0.0555288 -0.0878578 0.0291102 0.0657286 -0.082621 0.0545773 0.0656687 -0.0873848 
0.0574094 0.0875471 -0.0837552 0.110953 0.0858868 -0.087568 0.0417147 0.0977446 -0.086154 
0.0745381 0.112998 -0.0868424 0.0149314 0.0667253 -0.0796058 0.0622424 0.0651308 -0.0761326 
0.0504513 0.0717673 -0.078876 0.0931067 0.075387 -0.0817175 0.00577289 0.110145 -0.0754679 
0.0197434 0.0612079 -0.0692708 0.0733214 0.0613876 -0.0674099 0.0397789 0.0797588 -0.073438 
0.107618 0.104161 -0.0704043 0.0791781 0.118927 -0.0730462 0.0617433 0.103109 -0.066052 
0.0280398 0.0923215 -0.0529941 0.0518612 0.0989273 -0.0527963 0.0853605 0.116899 -0.0564998 
0.116199 0.120976 -0.0556871 0.0658769 0.127609 -0.053429 0.021826 0.0581619 -0.0532807 
0.143496 0.0659629 -0.0458219 0.0226076 0.0707567 -0.0461047 0.0553147 0.0813995 -0.0486583 
0.0409953 0.104659 -0.0455258 0.125167 0.0614454 -0.0451946 0.0447432 0.0739387 -0.0427454 
0.0184821 0.0869586 -0.04092 0.139658 0.0896044 -0.0405893 0.0682015 0.109736 -0.0405512 
0.0122507 0.112543 -0.0395462 0.0841556 0.117299 -0.0401107 0.043317 0.0621862 -0.0325996 
0.135139 0.074289 -0.0322751 0.0373994 0.137599 -0.0354307 0.0860626 0.057361 -0.0265919 
0.0586986 0.0844658 -0.0260006 0.019059 0.0978708 -0.026986 0.107871 0.0552693 -0.0183372 
0.143671 0.0690197 -0.0163616 0.0946828 0.073715 -0.0149854 0.0729541 0.0865469 -0.0216621 
0.0513887 0.0981239 -0.0192745 0.144109 0.0967834 -0.0195417 0.0631954 0.0644273 -0.0138007 
0.0464742 0.0698376 -0.010323 0.140001 0.0872212 -0.0113064 0.0442452 0.133563 -0.00922199 
0.0362662 0.0581339 -0.00469658 0.121142 0.0579547 -0.000844776 0.0805107 0.0798169 -0.0025703 
0.0555858 0.0965658 -0.00426177 0.144961 0.106099 -0.00568826 0.0124363 0.112851 -0.00342841 
0.0450302 0.0559975 -0.000149295 0.114866 0.148793 0.143206 0.130801 0.0630681 0.00656455 
0.139265 0.0693996 0.00161676 0.072871 0.0561962 0.00738553 0.0811531 0.0692783 0.0124074 
0.113819 0.0735931 0.00800713 0.0245439 0.0788285 0.0114484 0.0202015 0.113292 0.00779242 
0.114687 0.110142 0.013688 0.0452459 0.0594381 0.0218748 0.0900464 0.0598638 0.0199787 
0.103146 0.0607563 0.0200554 0.11494 0.0592534 0.014737 0.0958387 0.0729498 0.0167719 
0.10398 0.0577654 0.0297632 0.0728511 0.0663868 0.0247144 0.0254349 0.0997414 0.0240305 
0.0858583 0.0568237 0.032009 0.060595 0.0683542 0.0327569 0.135436 0.0622834 0.036502 
0.106115 0.0729136 0.03255 0.0173196 0.0802999 0.037356 0.0479503 0.079195 0.0306691 
0.124231 0.0556341 0.0398516 0.062432 0.0663411 0.0443942 0.0834737 0.069482 0.0385415 
0.142311 0.0668811 0.0423654 0.0477314 0.0803543 0.0429145 0.0315408 0.128698 0.0388379 
0.104963 0.12789 0.0433152 0.0103444 0.054986 0.048424 0.0251927 0.0567001 0.0461087 
0.0771876 0.0563063 0.0456903 0.132975 0.061815 0.0480339 0.0224141 0.0684489 0.0469374 
0.0719157 0.0611766 0.056141 0.11132 0.06704 0.0556894 0.0852251 0.096222 0.0569815 
0.0404633 0.116376 0.0573866 0.000997551 0.12187 0.0533778 0.0457716 0.0563672 0.0610411 
0.113047 0.100473 0.0632713 0.000582045 0.115926 0.0632323 0.0996752 0.139646 0.0670248 
0.00638446 0.0677253 0.0729737 0.120128 0.0680926 0.0740462 0.135228 0.133717 0.0714971 
0.108283 0.147902 0.0738351 0.0205559 0.0550332 0.0816607 0.12852 0.0734956 0.0753107 
0.0369442 0.0808323 0.0805268 0.0967752 0.0852526 0.0820783 0.137527 0.107541 0.0761246 
0.0488671 0.136005 0.0810246 0.142628 0.0703456 0.0864569 0.103411 0.0867615 0.0912116 
0.045344 0.0958965 0.0862745 0.143198 0.0592558 0.0942151 0.101609 0.0671276 0.0951968 
0.0153892 0.0809682 0.0906275 0.0884245 0.119823 0.0901043 0.0154279 0.0603359 0.101117 
0.0741336 0.0551734 0.100833 0.0549447 0.0777581 0.10473 0.12625 0.0878552 0.104529 
0.0240056 0.107577 0.104292 0.0703106 0.119095 0.104482 0.137509 0.0719578 0.110826 
0.00181876 0.0799495 0.107759 0.0164356 0.0551414 0.116491 0.067585 0.0868168 0.114109 
0.0766089 0.133592 0.117551 0.0431683 0.145807 0.116817 0.0273696 0.0632754 0.122749 
0.0685551 0.0778962 0.121182 0.037935 0.0780411 0.122475 0.014217 0.136901 0.122649 
0.0822221 0.0588188 0.129796 0.0221817 0.0746594 0.128971 0.128161 0.140044 0.128751 
0.138665 0.0613062 0.138455 0.122203 0.0633991 0.141358 0.0254182 0.0821659 0.135364 
0.131735 0.0814213 0.1406 0.0806615 0.108045 0.139754 0.0430656 0.115144 0.136243 
0.003985 0.153406 0.139356 0.014114 0.138341 0.144618 
VERTICES 408 407
OFFSETS vtktypeint64
0 1 2 3 4 5 6 7 8 
9 10 11 12 13 14 15 16 17 
18 19 20 21 22 23 24 25 26 
27 28 29 30 31 32 33 34 35 
36 37 38 39 40 41 42 43 44 
45 46 47 48 49 50 51 52 53 
54 55 56 57 58 59 60 61 62 
63 64 65 66 67 68 69 70 71 
72 73 74 75 76 77 78 79 80 
81 82 83 84 85 86 87 88 89 
90 91 92 93 94 95 96 97 98 
99 100 101 102 103 104 105 106 107 
108 109 110 111 112 113 114 115 116 
117 118 119 120 121 122 123 124 125 
126 127 128 129 130 131 132 133 134 
135 136 137 138 139 140 141 142 143 
144 145 146 147 148 149 150 151 152 
153 154 155 156 157 158 159 160 161 
162 163 164 165 166 167 168 169 170 
171 172 173 174 175 176 177 178 179 
180 181 182 183 184 185 186 187 188 
189 190 191 192 193 194 195 196 197 
198 199 200 201 202 203 204 205 206 
207 208 209 210 211 212 213 214 215 
216 217 218 219 220 221 222 223 224 
225 226 227 228 229 230 231 232 233 
234 235 236 237 238 239 240 241 242 
243 244 245 246 247 248 249 250 251 
252 253 254 255 256 257 258 259 260 
261 262 263 264 265 266 267 268 269 
270 271 272 273 274 275 276 277 278 
279 280 281 282 283 284 285 286 287 
288 289 290 291 292 293 294 295 296 
297 298 299 300 301 302 303 304 305 
306 307 308 309 310 311 312 313 314 
315 316 317 318 319 320 321 322 323 
324 325 326 327 328 329 330 331 332 
333 334 335 336 337 338 339 340 341 
342 343 344 345 346 347 348 349 350 
351 352 353 354 355 356 357 358 359 
360 361 362 363 364 365 366 367 368 
369 370 371 372 373 374 375 376 377 
378 379 380 381 382 383 384 385 386 
387 388 389 390 391 392 393 394 395 
396 397 398 399 400 401 402 403 404 
405 406 407 
CONNECTIVITY vtktypeint64
0 1 2 3 4 5 6 7 8 
9 10 11 12 13 14 15 16 17 
18 19 20 21 22 23 24 25 26 
27 28 29 30 31 32 33 34 35 
36 37 38 39 40 41 42 43 44 
45 46 47 48 49 50 51 52 53 
54 55 56 57 58 59 60 61 62 
63 64 65 66 67 68 69 70 71 
72 73 74 75 76 77 78 79 80 
81 82 83 84 85 86 87 88 89 
90 91 92 93 94 95 96 97 98 
99 100 101 102 103 104 105 106 107 
108 109 110 111 112 113 114 115 116 
117 118 119 120 121 122 123 124 125 
126 127 128 129 130 131 132 133 134 
135 136 137 138 139 140 141 142 143 
144 145 146 147 148 149 150 151 152 
153 154 155 156 157 158 159 160 161 
162 163 164 165 166 167 168 169 170 
171 172 173 174 175 176 177 178 179 
180 181 182 183 184 185 186 187 188 
189 190 191 192 193 194 195 196 197 
198 199 200 201 202 203 204 205 206 
207 208 209 210 211 212 213 214 215 
216 217 218 219 220 221 222 223 224 
225 226 227 228 229 230 231 232 233 
234 235 236 237 238 239 240 241 242 
243 244 245 246 247 248 249 250 251 
252 253 254 255 256 257 258 259 260 
261 262 263 264 265 266 267 268 269 
270 271 272 273 274 275 276 277 278 
279 280 281 282 283 284 285 286 287 
288 289 290 291 292 293 294 295 296 
297 298 299 300 301 302 303 304 305 
306 307 308 309 310 311 312 313 314 
315 316 317 318 319 320 321 322 323 
324 325 326 327 328 329 330 331 332 
333 334 335 336 337 338 339 340 341 
342 343 344 345 346 347 348 349 350 
351 352 353 354 355 356 357 358 359 
360 361 362 363 364 365 366 367 368 
369 370 371 372 373 374 375 376 377 
378 379 380 381 382 383 384 385 386 
387 388 389 390 391 392 393 394 395 
396 397 398 399 400 401 402 403 404 
405 406 
POINT_DATA 407
FIELD FieldData 8
id 1 407 int
3781 3745 2648 3994 3801 3970 3744 3884 2755 
3823 3937 3726 3894 2739 3785 3586 3931 2901 
3917 3773 3023 3987 3959 3907 3024 3296 3749 
3844 3981 3903 3025 3757 3685 3852 3730 3960 
3943 3180 3802 3403 3858 3359 3830 3711 3734 
3873 3242 3976 3824 2756 3740 3727 3814 3405 
3731 3716 3908 3949 3767 3026 3877 3686 2823 
3243 3404 2961 3932 3774 3181 3297 3853 3360 
2962 3758 3808 2749 3687 2825 3918 3786 2482 
2824 3809 3878 3759 3961 3135 3919 3995 3738 
3896 3787 3939 3895 3938 3996 3244 3133 3925 
3885 3182 3815 3920 3845 3519 3134 2902 3720 
3746 3975 3782 3982 3971 3879 3263 3953 3688 
3962 3950 3831 3835 3940 3909 3988 3631 3775 
3810 3825 3803 2963 3951 3836 3747 3587 3955 
3846 3794 3816 3788 3854 3406 3989 3783 3863 
3760 3768 3461 3728 3735 3911 3847 3906 3769 
2826 3871 3864 3910 3941 3761 3859 3795 4007 
3721 3136 3299 2757 3245 3407 2964 3765 3904 
3588 3754 3776 3898 3736 3183 3865 3817 2509 
3874 3886 3880 3804 3748 2649 3997 3837 3954 
3963 3933 3866 3855 3984 3887 3977 3921 3897 
3729 3956 3632 3690 3689 3848 3875 3722 4002 
4003 4006 4001 4008 4004 4005 3899 3849 3161 
3927 3900 3876 3942 3905 3972 3818 3934 3838 
3811 3789 3952 3964 2927 3741 3717 3978 3762 
3860 3957 3867 3440 3965 2989 3922 3944 3888 
3784 2867 3796 3839 3665 3945 3819 3208 3985 
3737 2748 3812 3770 3755 3856 3666 3868 3766 
3869 3889 2591 3840 3712 3691 3826 2481 3162 
3778 3441 3793 3805 3777 3881 3386 3832 3262 
3891 3797 3841 3827 3813 3966 3850 3763 3806 
3929 2483 3999 3915 2751 3928 2750 3842 3385 
3946 3713 3324 3613 3990 3851 3890 3923 3614 
3973 3771 3723 3991 3913 3518 3714 3914 3870 
3901 3912 3882 3779 3163 3791 3442 3764 3820 
3828 2790 3084 3742 3790 3718 3692 2690 3732 
3979 3667 3986 3974 3750 3947 3998 3924 3668 
2928 3739 3892 3715 2484 3756 3807 3298 3926 
3916 3751 3719 3993 3833 4000 3821 3834 3861 
3799 3862 3520 3325 3930 3752 3209 3843 3958 
3798 3980 3780 2752 3326 3902 3443 3772 2868 
3857 3829 2550 3968 3872 3992 3743 3822 3733 
3983 3792 3800 3753 3521 3883 3725 2753 3694 
3935 3969 3724 3444 3936 3967 3693 3948 3893 
2754 2990 
type 1 407 int
2 2 2 2 2 2 2 2 2 
2 2 2 2 2 2 2 2 2 
2 2 2 2 2 2 2 2 2 
2 2 2 2 2 2 2 2 2 
2 2 2 2 2 2 2 2 2 
2 2 2 2 2 2 2 2 2 
2 2 2 2 2 2 2 2 2 
2 2 2 2 2 2 2 2 2 
2 2 2 2 2 2 2 2 2 
2 2 2 2 2 2 2 2 2 
2 2 2 2 2 2 2 2 2 
2 2 2 2 2 2 2 2 2 
2 2 2 2 2 2 2 2 2 
2 2 2 2 2 2 2 2 2 
2 2 2 2 2 2 2 2 2 
2 2 2 2 2 2 2 2 2 
2 2 2 2 2 2 2 2 2 
2 2 2 2 2 2 2 2 2 
2 2 2 2 2 2 2 2 2 
2 2 2 2 2 2 2 2 2 
2 2 2 2 2 2 2 2 2 
2 2 2 2 2 2 2 2 2 
2 2 2 2 2 2 2 2 2 
2 2 2 2 2 2 2 2 2 
2 2 2 2 2 2 2 2 2 
2 2 2 2 2 2 2 2 2 
2 2 2 2 2 2 2 2 2 
2 2 2 2 2 2 2 2 2 
2 2 2 2 2 2 2 2 2 
2 2 2 2 2 2 2 2 2 
2 2 2 2 2 2 2 2 2 
2 2 2 2 2 2 2 2 2 
2 2 2 2 2 2 2 2 2 
2 2 2 2 2 2 2 2 2 
2 2 2 2 2 2 2 2 2 
2 2 2 2 2 2 2 2 2 
2 2 2 2 2 2 2 2 2 
2 2 2 2 2 2 2 2 2 
2 2 2 2 2 2 2 2 2 
2 2 2 2 2 2 2 2 2 
2 2 2 2 2 2 2 2 2 
2 2 2 2 2 2 2 2 2 
2 2 2 2 2 2 2 2 2 
2 2 2 2 2 2 2 2 2 
2 2 2 2 2 2 2 2 2 
2 2 
i 3 407 int
0 0 0 0 0 0 0 0 0 
0 0 0 0 0 0 0 0 0 
0 0 0 0 0 0 0 0 0 
0 0 0 0 0 0 0 0 0 
0 0 0 0 0 0 0 0 0 
0 0 0 0 0 0 0 0 0 
0 0 0 0 0 0 0 0 0 
0 0 0 0 0 0 0 0 0 
0 0 0 0 0 0 0 0 0 
0 0 0 0 0 0 0 0 0 
0 0 0 0 0 0 0 0 0 
0 0 0 0 0 0 0 0 0 
0 0 0 0 0 0 0 0 0 
0 0 0 0 0 0 0 0 0 
0 0 0 0 0 0 0 0 0 
0 0 0 0 0 0 0 0 0 
0 0 0 0 0 0 0 0 0 
0 0 0 0 0 0 0 0 0 
0 0 0 0 0 0 0 0 0 
0 0 0 0 0 0 0 0 0 
0 0 0 0 0 0 0 0 0 
0 0 0 0 0 0 0 0 0 
0 0 0 0 0 0 0 0 0 
0 0 0 0 0 0 0 0 0 
0 0 0 0 0 0 0 0 0 
0 0 0 0 0 0 0 0 0 
0 0 0 0 0 0 0 0 0 
0 0 0 0 0 0 0 0 0 
0 0 0 0 0 0 0 0 0 
0 0 0 0 0 0 0 0 0 
0 0 0 0 0 0 0 0 0 
0 0 0 0 0 0 0 0 0 
0 0 0 0 0 0 0 0 0 
0 0 0 0 0 0 0 0 0 
0 0 0 0 0 0 0 0 0 
0 0 0 0 0 0 0 0 0 
0 0 0 0 0 0 0 0 0 
0 0 0 0 0 0 0 0 0 
0 0 0 0 0 0 0 0 0 
0 0 0 0 0 0 0 0 0 
0 0 0 0 0 0 0 0 0 
0 0 0 0 0 0 0 0 0 
0 0 0 0 0 0 0 0 0 
0 0 0 0 0 0 0 0 0 
0 0 0 0 0 0 0 0 0 
0 0 0 0 0 0 0 0 0 
0 0 0 0 0 0 0 0 0 
0 0 0 0 0 0 0 0 0 
0 0 0 0 0 0 0 0 0 
0 0 0 0 0 0 0 0 0 
0 0 0 0 0 0 0 0 0 
0 0 0 0 0 0 0 0 0 
0 0 0 0 0 0 0 0 0 
0 0 0 0 0 0 0 0 0 
0 0 0 0 0 0 0 0 0 
0 0 0 0 0 0 0 0 0 
0 0 0 0 0 0 0 0 0 
0 0 0 0 0 0 0 0 0 
0 0 0 0 0 0 0 0 0 
0 0 0 0 0 0 0 0 0 
0 0 0 0 0 0 0 0 0 
0 0 0 0 0 0 0 0 0 
0 0 0 0 0 0 0 0 0 
0 0 0 0 0 0 0 0 0 
0 0 0 0 0 0 0 0 0 
0 0 0 0 0 0 0 0 0 
0 0 0 0 0 0 0 0 0 
0 0 0 0 0 0 0 0 0 
0 0 0 0 0 0 0 0 0 
0 0 0 0 0 0 0 0 0 
0 0 0 0 0 0 0 0 0 
0 0 0 0 0 0 0 0 0 
0 0 0 0 0 0 0 0 0 
0 0 0 0 0 0 0 0 0 
0 0 0 0 0 0 0 0 0 
0 0 0 0 0 0 0 0 0 
0 0 0 0 0 0 0 0 0 
0 0 0 0 0 0 0 0 0 
0 0 0 0 0 0 0 0 0 
0 0 0 0 0 0 0 0 0 
0 0 0 0 0 0 0 0 0 
0 0 0 0 0 0 0 0 0 
0 0 0 0 0 0 0 0 0 
0 0 0 0 0 0 0 0 0 
0 0 0 0 0 0 0 0 0 
0 0 0 0 0 0 0 0 0 
0 0 0 0 0 0 0 0 0 
0 0 0 0 0 0 0 0 0 
0 0 0 0 0 0 0 0 0 
0 0 0 0 0 0 0 0 0 
0 0 0 0 0 0 0 0 0 
0 0 0 0 0 0 0 0 0 
0 0 0 0 0 0 0 0 0 
0 0 0 0 0 0 0 0 0 
0 0 0 0 0 0 0 0 0 
0 0 0 0 0 0 0 0 0 
0 0 0 0 0 0 0 0 0 
0 0 0 0 0 0 0 0 0 
0 0 0 0 0 0 0 0 0 
0 0 0 0 0 0 0 0 0 
0 0 0 0 0 0 0 0 0 
0 0 0 0 0 0 0 0 0 
0 0 0 0 0 0 0 0 0 
0 0 0 0 0 0 0 0 0 
0 0 0 0 0 0 0 0 0 
0 0 0 0 0 0 0 0 0 
0 0 0 0 0 0 0 0 0 
0 0 0 0 0 0 0 0 0 
0 0 0 0 0 0 0 0 0 
0 0 0 0 0 0 0 0 0 
0 0 0 0 0 0 0 0 0 
0 0 0 0 0 0 0 0 0 
0 0 0 0 0 0 0 0 0 
0 0 0 0 0 0 0 0 0 
0 0 0 0 0 0 0 0 0 
0 0 0 0 0 0 0 0 0 
0 0 0 0 0 0 0 0 0 
0 0 0 0 0 0 0 0 0 
0 0 0 0 0 0 0 0 0 
0 0 0 0 0 0 0 0 0 
0 0 0 0 0 0 0 0 0 
0 0 0 0 0 0 0 0 0 
0 0 0 0 0 0 0 0 0 
0 0 0 0 0 0 0 0 0 
0 0 0 0 0 0 0 0 0 
0 0 0 0 0 0 0 0 0 
0 0 0 0 0 0 0 0 0 
0 0 0 0 0 0 0 0 0 
0 0 0 0 0 0 0 0 0 
0 0 0 0 0 0 0 0 0 
0 0 0 0 0 0 0 0 0 
0 0 0 0 0 0 0 0 0 
0 0 0 0 0 0 0 0 0 
0 0 0 0 0 0 0 0 0 
0 0 0 0 0 0 0 0 0 
0 0 0 0 0 0 
v 3 407 double
0.011437581343 0.0064495035338 -0.011133559874 -0.0056303209371 0.0085283445581 0.016039859049 -0.027173646627 0.011902077028 0.021408443641 
-0.015970077835 0.15166809512 0.0078683031147 0.010048934566 -0.00070430313784 0.0034683114765 -0.13317801248 0.16221021249 0.0070055395523 
0.0084999301845 0.1323890659 0.0081926522313 0.0041098429884 0.30328549985 0.0085481915591 -0.015825932323 -0.0093599622889 0.054880867859 
-0.027682094838 0.035560805087 0.07204171858 0.00042695319134 0.13846042764 0.029105660503 0.088754276994 0.22662720955 0.01755179333 
0.0075502887383 -0.011589907357 0.0083803682834 -0.025736926657 0.022935827229 0.0054638990168 -0.19853840685 0.048221292243 -0.0035554696916 
-0.052806535397 0.024323413529 0.073682984456 -0.080920948392 -0.042132875242 0.070212812582 0.019798951085 0.040401127349 0.0076420378047 
-0.078830096885 0.05744859893 0.00019912973901 -0.014669051972 0.098089901573 0.15276819269 -0.032235806057 0.015450186834 0.090000174597 
-0.031250205073 0.21919385107 0.082559184695 -0.00066328633309 0.27334262606 0.093316999735 0 0.410001241 0 
0.014992955642 -0.025645243798 0.04215090128 0.012718550083 0.067616469755 0.01425317236 -0.19048707261 0.037453699347 -0.044591951551 
-0.023837693753 0.013424326694 0.030482934101 0.096087284017 0.12261288527 -0.004294039915 0.035121297983 0.12847363527 0.096812815135 
-0.0019744625053 0.17072106895 -0.05554937502 0.17906924697 0.04465336239 0.12954131523 0.12933529232 0.042588217061 0.051919416551 
-0.024108631974 0.052866387327 -0.0092589620461 -0.11892512988 -0.10473590208 0.067413718265 -0.097092786944 0.060812066546 0.13240196031 
-0.025050164443 0.076281527845 0.10356541993 -0.005644904192 0.11634111591 0.004857108426 -0.040956546694 0.26237529859 -0.077021290032 
-0.0096575554909 0.27005267014 0.0080604148417 0.1383727102 0.10081244027 -0.098310755058 -0.097613623005 0.14261836488 -0.069878233524 
-0.02568388976 0.17898130461 0.043235618101 0.15312727312 0.17656285951 -0.0069606360303 0 0.39896583638 0 
-0.041178332009 0.14957725344 0.14796284926 8.7304082862e-05 0.05658216547 0.0490846904 -0.00010155981897 0.4026845298 0.00010091191765 
0 0.4099646538 0 0 0.39895779965 -0.0048950405667 -0.013439671783 0.51232874696 -0.080587636658 
-0.023683525094 0.038479039595 0.077669425022 0.11795535952 0.0097730096812 0.18953233749 0.32876983248 -0.031845621495 -0.32283421205 
-0.12936023577 -0.043487840632 0.063024878278 -0.21182349314 0.046633813357 -0.020952048906 -0.21558529215 -0.019513045433 -0.17941226195 
0 0.39875905054 0 -0.004507024569 0.40045571211 -0.019038581245 -1.4485258125e-05 0.39873630553 -3.634419112e-05 
-0.051741169069 0.04058371722 -0.053836692909 -0.082935369571 0.12454513688 0.22031739751 0.048239276178 0.099225294711 0.24497616456 
0.0073616794846 0.22860097262 0.0056379145434 0.013750131286 0.41310435568 -0.010249234026 -0.031545988205 0.03808721382 0.20551580488 
0.0048568421874 0.08945452959 -0.10391745121 0.1287683514 0.19121853907 0.11076579337 -0.0006249839803 0.39654364795 -0.0035443033661 
0.028135713549 -0.096028905037 0.39390411585 0.11894776992 0.030525204738 -0.0016192883287 -0.10463700881 -0.09401554567 -0.18572435433 
-0.0039167831326 0.051254836739 -0.001557137884 0.21273066105 0.083784470045 0.0040210919325 0.022134701501 0.099469048355 -0.23615431165 
-0.035862658324 0.090291244517 0.064308977049 0 0.39374558319 -0.0047274651976 0 0.41049660782 0 
0.0071542694571 0.0097579034233 -0.10906964922 0.16516498594 -0.03766484776 0.11888971262 -0.019593090008 0.057115403233 0.099738465183 
0.12238043293 0.036894853432 0.11068023583 0.15225154347 0.067580660551 -0.094471712005 0 0.39904491296 0 
0 0.40508628054 1.1391752074e-05 0.10496808526 -0.011058480173 -0.089185180103 -0.14104871598 0.066372794091 -0.059408977745 
0.16428322242 0.04201002391 -0.043165067736 0.11689517866 0.034012877468 -0.026184469839 -0.36665433723 0.044243831614 -0.19837922569 
0.045844753257 0.11028899352 -0.1898000073 0.024725401975 0.083038042692 -0.060573489246 -0.016476201133 0.099454444818 -0.084306564822 
0 0.38773520475 0 0.031590655792 0.043572963739 -0.02529784089 -0.0061600299512 0.11429591419 0.13432692073 
-0.011140416409 0.097767829241 -0.12921837017 -0.0030995011966 0.4005287818 -0.0015598553611 0.040199520073 -0.095870598549 -0.086165661967 
-0.046716239386 0.008393984018 -0.03300470256 -0.046634918245 -0.00040446379615 -0.042702985677 -0.10258678328 0.17127616261 -0.033722008942 
-0.16380292728 0.19000114531 -0.11205497034 -0.018713004647 0.38875185117 7.8913229596e-15 -0.081077584478 0.27179021998 -0.19453844851 
0.0017389604782 0.39882328398 -0.0017389604782 -0.041395108312 0.030254707256 -0.015962865519 -0.046082577918 0.018225688334 0.024099985736 
-0.02456028625 0.011359228832 -0.0113720337 0.16730344752 -0.03966117112 0.007293269271 -0.021052851016 0.051147750358 0.040113639037 
0.019787213071 -0.021501967877 -0.04342603547 -0.081684893755 -0.022103683302 -0.017092402979 -0.033229108723 0.13146619811 -0.072439225811 
0.0076454314498 0.10692208556 -0.019647122656 -0.15104217532 0.21350433729 -0.08847513098 0.0050133738183 0.03415893043 0.0051985059679 
0.068136284096 -0.014428601502 0.0099872882492 0.006069576639 0.039127362139 0.043807565819 -0.04239299415 0.032731008683 -0.025360640441 
0.14934816722 0.038916575791 0.17108908232 0.058087612515 0.020893658911 0.057573748421 -0.093883439559 0.14252171153 0.082969879669 
-0.029513261594 0.16173266479 0.02841832475 -0.046054797591 0.035397971386 0.092164701031 -0.021958819501 0.054191597684 0.048298013441 
0.068320906178 0.022908983695 0.03113090375 -0.0094375276358 0.047072839183 -0.0043676764478 0.0072362702748 0.058305934916 0.019862412065 
0.08384646776 0.068416862212 0.012924444158 -0.3079784592 0.20546468663 -0.29548681616 0.059680260923 -0.0043191316277 -0.0088384705466 
0.045861773211 0.010416166083 0.066043061475 -0.074711751139 -0.0080621039028 0.03428911449 0.024759942221 0.078324211804 0.044473428344 
0.13707801014 0.10385176188 0.11392848556 -0.0021049833578 0.38899466784 -0.000126565171 0.14839527413 0.58811835358 0.043079860813 
-0.0096835260449 0.035256949499 0.052062394919 -0.065001341762 0.019554148352 0.081816480773 0.1075239518 0.021635070801 0.091420686529 
-0.00052740355422 0.38710693906 -0.0011288573072 -0.0020887119363 0.38986351732 -0.0070491576428 0.035405350312 -0.063905926467 0.12156320456 
-0.055878085168 0.018552676409 0.077319089015 0.041737892857 0.0073860254482 0.11542297028 0.17678183662 0.045691837597 0.11687765623 
-0.028734807798 0.24194419456 -0.0010331898798 0 0.41007381017 0 0.021090019239 0.040968074452 -0.041410956983 
-0.029110559063 0.018207847277 -0.076876075613 -0.20612077071 0.03697736462 -0.10285249585 0.0020429030869 0.39521847008 -0.0010600737839 
-0.0016610994383 0.29654940525 0.0087496036546 -0.036678867017 0.018828960769 0.032514711551 -0.1805049794 0.05781629622 -0.033949824544 
-0.13645977946 0.12244416595 0.087249181893 0.031131950044 0.032706997154 0.10031977015 -0.018697854525 0.19836571032 0.034234384001 
0.012190777852 0.32929773123 0.012633784709 0 0.41052549956 0 0.021158968036 0.55245924998 0.065369679353 
0.037498491992 -0.098639938923 0.1588119919 -0.00044574958215 0.029243049089 0.10201140501 0 0.39882697079 0 
0 0.39925497113 0 0.00056348824668 0.40152978625 0.00027402949384 0.0023122065005 0.39628274053 0.0023597342796 
0 0.39875819248 -0.0097057056303 -0.076416026534 0.17725342488 -0.024615689046 0.044804293718 0.32049728826 -0.0062287931832 
0 0.38755395842 -0.0050852537353 0.16820795446 0.029549338883 0.12446726565 -0.20190154007 0.19481537035 0.026359778761 
0.0002814165965 0.39586236908 -0.0042450652735 0 0.39872827304 0 -8.0938774001e-06 0.39894161244 0 
-0.00036883905222 0.40129851273 -0.0077537456699 0 0.38761842277 0 -0.0033082998542 0.13377592098 -0.0033247496929 
0.042256730961 0.27150018908 0.1254322865 0.0012503121485 0.38702661056 -0.005926866043 -0.027545708121 0.38422685286 0.11030070993 
0 0.41016565709 9.1963837408e-06 0.0002436659938 0.41148920957 0.0063921664547 -0.0046666478446 0.28784143851 -0.0046798590522 
0.033991363402 0.19247764267 -0.017820487125 -0.019718467175 0.29448520505 0.12092734083 -0.012212897362 0.075823784745 -0.18361467497 
-0.018673129003 0.22509155007 0.014510142177 0 0.3987994427 6.9043932791e-06 0.0024336544151 0.40286253151 0.0042270621109 
-0.002634341908 0.41110012695 0.0010203462189 -0.00032362647397 0.39932044177 -0.0012764948875 0.00051441565056 0.39864167423 0.0017178022421 
0.018667793496 0.027909356118 -0.091149253707 0.020188320678 0.34687093157 -0.00040929342903 0.086053560792 0.32893311383 -0.0017445639745 