# vtk DataFile Version 5.1
Generated by LIGGGHTS
ASCII
DATASET POLYDATA
POINTS 421 float
-0.138945 0.0563806 -0.144959 -0.142679 0.0696858 -0.144308 -0.0983112 0.0799646 -0.143918 
-0.105116 0.0915104 -0.144002 -0.0744109 0.0912802 -0.143793 -0.0500278 0.12746 -0.143971 
-0.117482 0.0562756 -0.141506 -0.0710451 0.0569779 -0.141005 -0.0232227 0.0867397 -0.1378 
-0.144754 0.0585451 -0.13482 -0.13482 0.0616462 -0.132884 -0.113727 0.0610721 -0.131361 
-0.04647 0.0638822 -0.130175 -0.0665487 0.0755959 -0.132356 -0.0371081 0.0744485 -0.130444 
-0.134678 0.0776747 -0.130024 -0.0195111 0.11072 -0.134156 -0.127336 0.154334 -0.131567 
-0.127231 0.0597884 -0.12626 -0.116209 0.0603919 -0.119732 -0.076934 0.0560187 -0.125063 
-0.0380953 0.0703313 -0.121051 -0.11765 0.0787522 -0.123065 -0.0234506 0.127517 -0.121757 
-0.14224 0.0557348 -0.119506 -0.00490585 0.0601609 -0.120459 -0.100094 0.076553 -0.11719 
-0.0088977 0.0824091 -0.119231 -0.10708 0.102347 -0.118933 -0.0662965 0.126003 -0.117341 
-0.01908 0.0570463 -0.109478 -0.0295745 0.0642691 -0.10877 -0.0501911 0.087228 -0.106431 
-0.00458254 0.0880095 -0.109116 -0.101329 0.0957246 -0.10675 -0.0809997 0.0933248 -0.111703 
-0.082531 0.153899 -0.110466 -0.0713261 0.0657315 -0.100812 -0.00799902 0.0688623 -0.102118 
-0.0625874 0.0970524 -0.0990929 -0.00375997 0.104187 -0.0982876 -0.0376925 0.174431 -0.103091 
-0.0779896 0.0642537 -0.0917534 -0.0513756 0.0682044 -0.0920363 -0.0941472 0.084557 -0.0921071 
-0.0426873 0.0817619 -0.0842021 -0.0689882 0.143437 -0.0869828 -0.0862438 0.166372 -0.0889079 
-0.051051 0.192546 -0.0836172 -0.140347 0.0752832 -0.0773936 -0.0382678 0.0954099 -0.0812109 
-0.0285638 0.0555787 -0.0697021 -0.113227 0.0620685 -0.0721864 -0.054698 0.0733042 -0.0761855 
-0.0848825 0.145318 -0.0727564 -0.0634385 0.169644 -0.0712712 -0.115328 0.188838 -0.071049 
-0.0816426 0.0616485 -0.0609202 -0.0228731 0.0660625 -0.0657591 -0.0744835 0.0793237 -0.0642523 
-0.116191 0.119645 -0.0612147 -0.0203666 0.189073 -0.0627895 -0.0948569 0.0575405 -0.0597665 
-0.0122782 0.185836 -0.0529971 -0.00774053 0.0629247 -0.045389 -0.0706265 0.0745561 -0.0452837 
-0.0502716 0.0767345 -0.0523017 -0.0250725 0.10735 -0.0449626 -0.0825843 0.177228 -0.0490197 
-0.0529626 0.196663 -0.0495144 -0.115335 0.0554871 -0.0393077 -0.0758809 0.0555599 -0.0434572 
-0.104784 0.0689153 -0.0433289 -0.00707886 0.077118 -0.0415425 -0.0370733 0.0894561 -0.0394746 
-0.058532 0.094428 -0.0389871 -0.127464 0.107952 -0.0376157 -0.0513617 0.0552904 -0.0350992 
-0.117226 0.0732711 -0.0363044 -0.134083 0.0790599 -0.0341825 -0.0487665 0.0800048 -0.0326983 
-0.104349 0.15386 -0.0326997 -0.127583 0.172417 -0.0307961 -0.0678712 0.0657352 -0.0263124 
-0.0563355 0.0645057 -0.0221826 -0.0037444 0.07254 -0.0256368 -0.0902624 0.0833714 -0.0248791 
-0.0408918 0.0793716 -0.0255659 -0.137397 0.0590532 -0.018816 -0.0448726 0.0708564 -0.0217545 
-0.0226491 0.103429 -0.0217366 -0.0152445 0.137265 -0.0225051 -0.0488331 0.148407 -0.019761 
-0.107539 0.0571251 -0.00845172 -0.0742564 0.0637799 -0.0121539 -0.135643 0.09729 -0.00941476 
-0.144922 0.101829 -0.0145277 -0.14069 0.112375 -0.0140575 -0.0171913 0.188472 -0.0113934 
-0.136773 0.0563306 -0.00521806 -0.079659 0.0572875 -0.00078242 -0.0479565 0.0568215 -0.000820915 
-0.115695 0.061784 -0.00425513 -0.100023 0.0653085 -0.00107917 -0.0256218 0.187915 -0.0030982 
-0.0147827 0.0870266 -0.00454663 -0.0230804 0.124596 -0.00214704 -0.0450717 0.155255 -0.00115547 
-0.132954 0.0606773 0.00308399 -0.0974149 0.0583267 0.00691735 -0.123195 0.0620674 0.00470032 
-0.10712 0.0677763 0.00636159 -0.144228 0.0600143 0.0133834 -0.0507796 0.0552545 0.0128257 
-0.0344499 0.0637369 0.0123797 -0.130016 0.0675387 0.0150558 -0.118941 0.0673371 0.021705 
-0.00879082 0.0692183 0.0231821 -0.071481 0.0915886 0.00075505 -0.112382 0.0725988 0.0154898 
-0.0440938 0.0723438 0.0190689 -0.111664 0.0958202 0.0190603 -0.0917872 0.0965737 0.0171772 
-0.131523 0.0551547 0.0248155 -0.0496768 0.0570737 0.0297774 -0.0108978 0.0558628 0.0261282 
-0.0991984 0.0620932 0.0298069 -0.0840586 0.0666589 0.0262575 -0.0869683 0.162061 0.024264 
-0.0261932 0.0694881 0.0298804 -0.131193 0.0795194 0.0314 -0.042718 0.136271 0.0365137 
-0.102692 0.163715 0.0345985 -0.0666135 0.0604278 0.0411528 -0.0176317 0.0571681 0.0380882 
-0.132143 0.068271 0.0412166 -0.0354479 0.0623092 0.0427844 -0.0312121 0.0713579 0.0390361 
-0.01881 0.0883597 0.0392726 -0.129874 0.109704 0.0436579 -0.0660782 0.179023 0.0377727 
-0.12549 0.0598451 0.0471381 -0.0880592 0.056379 0.0500172 -0.0772996 0.059448 0.0475856 
-0.0898237 0.156649 0.0469954 -0.0991645 0.168177 0.0494 -0.136105 0.0570302 0.0561644 
-0.144596 0.0683419 0.0560975 -0.0201178 0.0650551 0.0557531 -0.111443 0.138387 0.0584238 
-0.0401407 0.169676 0.0590509 -0.011742 0.0604052 0.061768 -0.121306 0.0861756 0.0667169 
-0.0984738 0.0863498 0.065647 -0.0707747 0.102261 0.0632433 -0.106768 0.184406 0.062131 
-0.0515635 0.193306 0.0618057 -0.137742 0.0579375 0.0706163 -0.0483914 0.0630668 0.0733443 
-0.0233375 0.102025 0.0738058 -0.139628 0.186918 0.070886 -0.129419 0.181946 0.0745166 
-0.0517727 0.189215 0.0711787 -0.0852892 0.131348 0.0775818 -0.0260893 0.176752 0.0817588 
-0.138845 0.103701 0.0862398 -0.0418845 0.150926 0.0871289 -0.141346 0.174277 0.0840536 
-0.120297 0.186734 0.0836254 -0.111719 0.157446 0.0900182 -0.0169162 0.158354 0.0973861 
-0.0464502 0.0650508 0.10001 -0.0375824 0.0704941 0.0960998 -0.0295322 0.102768 0.100598 
-0.12093 0.148848 0.0994032 -0.140335 0.169304 0.104457 -0.0301633 0.167723 0.0999676 
-0.0811394 0.177731 0.10122 -0.0609069 0.111032 0.106586 -0.0525729 0.121838 0.111443 
-0.0609753 0.102611 0.114168 -0.109689 0.148737 0.113556 -0.0715836 0.150283 0.116294 
-0.041582 0.158245 0.115164 -0.0295139 0.162188 0.112948 -0.0300137 0.0579244 0.122882 
-0.0767719 0.127377 0.122328 -0.050279 0.141872 0.123077 -0.131981 0.153286 0.121402 
-0.121328 0.136104 0.130478 -0.0949512 0.136073 0.129944 -0.140181 0.0681415 0.140399 
-0.0807448 0.0938203 0.142223 -0.0735294 0.106331 0.134914 -0.0477427 0.13925 0.142206 
-0.109685 0.161271 0.141917 -0.093945 0.0559764 0.143196 -0.0193876 0.0647103 0.145 
-0.0865588 0.0818819 0.143826 -0.109459 0.215178 -0.0997009 -0.10357 0.215181 -0.0997008 
-0.109463 0.227367 -0.0997254 -0.103575 0.22737 -0.0997254 -0.109459 0.215195 -0.0938124 
-0.10357 0.215198 -0.0938124 -0.109463 0.227384 -0.093837 -0.103575 0.227387 -0.0938369 
-0.0311495 0.225116 0.0294865 -0.0250618 0.224847 0.0295346 -0.0308988 0.231204 0.0296676 
-0.0248111 0.230935 0.0297157 -0.031205 0.224894 0.0355743 -0.0251173 0.224625 0.0356224 
-0.0309543 0.230982 0.0357553 -0.0248666 0.230713 0.0358034 -0.0964171 0.24432 0.0533229 
-0.0871056 0.244321 0.053323 -0.0964189 0.27341 0.0533271 -0.0871074 0.273412 0.0533271 
-0.0964171 0.244317 0.0626343 -0.0871057 0.244318 0.0626344 -0.0964189 0.273408 0.0626385 
-0.0871075 0.273409 0.0626386 0.0139745 0.0553426 -0.14477 0.0229761 0.060367 -0.144641 
0.0423985 0.0583631 -0.142752 0.00292013 0.0648426 -0.144189 0.143233 0.101255 -0.143554 
0.101711 0.106436 -0.143639 0.120225 0.122478 -0.144097 0.106319 0.1362 -0.14459 
0.00722594 0.0561338 -0.135568 0.031763 0.0552729 -0.138162 0.11041 0.0597943 -0.139339 
0.00469156 0.0830244 -0.137725 0.0163223 0.0831097 -0.137501 0.068985 0.0787543 -0.138551 
0.107793 0.0784498 -0.141415 0.0673498 0.0565552 -0.128314 0.0116728 0.0671136 -0.128377 
0.0280496 0.062701 -0.130639 0.0530788 0.0632549 -0.1336 0.0326169 0.076318 -0.129256 
0.0618142 0.0778315 -0.127754 0.0962246 0.0818757 -0.131647 0.105949 0.0576842 -0.126013 
0.0377805 0.064363 -0.123343 0.0703018 0.0804003 -0.122172 0.119854 0.143169 -0.122402 
0.144986 0.0613371 -0.114294 0.0869601 0.0686043 -0.114671 0.0242538 0.0794424 -0.116477 
0.00261858 0.0959853 -0.116984 0.0992725 0.151254 -0.117637 0.125163 0.0666302 -0.112291 
0.052617 0.0864911 -0.109776 0.0338513 0.120374 -0.110635 0.00639001 0.0550994 -0.103947 
0.0288837 0.0573676 -0.103389 0.0677305 0.0647556 -0.103775 0.0735967 0.0837314 -0.0992785 
0.0475734 0.115385 -0.102539 0.0937214 0.135684 -0.0989779 0.117695 0.159165 -0.104966 
0.0373456 0.0593133 -0.0907813 0.0041256 0.0701639 -0.0957778 0.0524846 0.0710541 -0.0943522 
0.136179 0.15347 -0.0934303 0.143282 0.0565433 -0.0840115 0.0272846 0.0731162 -0.085016 
0.013438 0.0813535 -0.0879037 0.0924691 0.0846666 -0.0826213 0.0446568 0.0868781 -0.0900396 
0.120012 0.102312 -0.082664 0.0679945 0.145218 -0.087371 0.0191501 0.0554373 -0.0820014 
0.0463725 0.0575347 -0.0777623 0.00688553 0.0644144 -0.0809216 0.11922 0.0621257 -0.0806402 
0.0410059 0.0722333 -0.0806402 0.0777524 0.0997066 -0.0753142 0.0669705 0.117127 -0.0781656 
0.0146039 0.0605838 -0.0734097 0.00448793 0.0619309 -0.0684031 0.064373 0.0685565 -0.0716757 
0.0293726 0.0700241 -0.072347 0.0366329 0.103038 -0.0711438 0.109922 0.13523 -0.0707553 
0.0791921 0.158149 -0.073305 0.0607909 0.124465 -0.0614082 0.0145407 0.135358 -0.0601016 
0.0785434 0.0659536 -0.0557337 0.0515336 0.0990006 -0.059158 0.0264992 0.118872 -0.0529016 
0.0488928 0.1173 -0.0557648 0.0853605 0.155655 -0.0564998 0.116199 0.160345 -0.0556864 
0.0658769 0.168619 -0.0535755 0.122389 0.0629184 -0.0489576 0.141529 0.0740559 -0.0504722 
0.144196 0.108266 -0.0438199 0.0430159 0.140355 -0.0440908 0.0682013 0.149866 -0.0405509 
0.0841556 0.156098 -0.0405824 0.0753969 0.058061 -0.0343288 0.113258 0.0589259 -0.0314388 
0.0222095 0.0817767 -0.0323703 0.0715546 0.0989511 -0.0310268 0.0236793 0.109692 -0.0301792 
0.00949667 0.1313 -0.0367921 0.0373605 0.176656 -0.0374852 0.0638172 0.0639286 -0.0305743 
0.0491276 0.0928342 -0.025218 0.132211 0.0879426 -0.0283234 0.130529 0.0984749 -0.0278816 
0.0429725 0.130503 -0.0294847 0.0190585 0.136644 -0.0269855 0.0377922 0.0648786 -0.0182661 
0.0415294 0.0806081 -0.0195676 0.144953 0.078808 -0.0191505 0.0536745 0.101665 -0.0187371 
0.0241275 0.0604896 -0.0109899 0.115379 0.0606721 -0.00875251 0.137254 0.10334 -0.00728502 
0.00824498 0.146479 -0.00914726 0.0337412 0.0576588 -0.00467902 0.0845421 0.076272 -0.00660342 
0.140804 0.0772618 -0.00749424 0.0784086 0.096344 -0.00475056 0.0447095 0.122503 -0.000890123 
0.144548 0.14299 -0.00742314 0.1301 0.0706492 -0.00037171 0.0695709 0.057634 0.00423586 
0.115916 0.0639013 0.00594827 0.114989 0.188896 0.143146 0.000410799 0.0877527 0.00200279 
0.0658807 0.0712139 0.0104375 0.09394 0.0773619 0.00946299 0.0242379 0.0885138 0.0111425 
0.10698 0.0891536 0.00893559 0.129028 0.132487 0.00782134 0.0216451 0.138576 0.0107633 
0.0854871 0.0646359 0.0161134 0.103695 0.0659244 0.0186795 0.0569238 0.0969802 0.021565 
0.0361432 0.164347 0.0190754 0.106538 0.0595283 0.0294953 0.0375138 0.064049 0.0290205 
0.0769252 0.0621624 0.0297248 0.0714623 0.0756123 0.027478 0.0255212 0.139191 0.0242945 
0.115849 0.0724598 0.0318379 0.0600775 0.0786442 0.0368341 0.0153695 0.0989032 0.0359767 
0.0334658 0.0946423 0.0299394 0.0756695 0.0562183 0.0394933 0.131806 0.0555971 0.0410687 
0.134 0.0700235 0.0388393 0.0764411 0.0785304 0.0432733 0.0862305 0.0830638 0.0434937 
0.0315408 0.167452 0.0388383 0.104879 0.168901 0.0428362 0.0586394 0.0651229 0.0453267 
0.141362 0.0751402 0.0456633 0.0170028 0.0802894 0.0476415 0.10735 0.121409 0.0456638 
0.0304236 0.0568625 0.0556931 0.045552 0.0605923 0.0609411 0.136991 0.0675005 0.0537306 
0.0852251 0.134984 0.0569815 0.0385891 0.143814 0.0540161 0.000785907 0.16215 0.0535636 
0.11381 0.0790309 0.0650629 0.000582045 0.155295 0.0627026 0.0996024 0.178637 0.066799 
0.0251948 0.0580103 0.0733162 0.0547192 0.167689 0.073913 0.135305 0.173978 0.0715986 
0.108258 0.188197 0.0738517 0.00123028 0.0784907 0.0765715 0.121562 0.0912701 0.0797454 
0.0264752 0.0550469 0.085398 0.139681 0.0624716 0.0841189 0.033413 0.0916196 0.0893043 
0.0139838 0.102593 0.0879143 0.0542594 0.109305 0.0839882 0.140007 0.136857 0.0887222 
0.000743704 0.0611303 0.0931403 0.117193 0.0689553 0.0956065 0.13552 0.0719692 0.0960909 
0.0997597 0.112055 0.0987524 0.0900387 0.15898 0.0904506 0.0474655 0.0616929 0.097982 
0.117488 0.0770607 0.104461 0.0126463 0.106571 0.100096 0.0705841 0.157669 0.104725 
0.136703 0.0827897 0.105641 0.0555409 0.0973994 0.108564 0.0684967 0.108254 0.111971 
0.12744 0.119086 0.108292 0.0942056 0.0575713 0.118746 0.0966802 0.110607 0.116251 
0.0235704 0.134922 0.119243 0.0765043 0.1737 0.117324 0.0429454 0.186764 0.116821 
0.0147548 0.0553634 0.12126 0.0334437 0.096736 0.121725 0.0650977 0.0959067 0.12053 
0.0141922 0.175967 0.122598 0.021359 0.0634983 0.1314 0.0172049 0.0812647 0.134304 
0.0312721 0.104805 0.131624 0.128526 0.179868 0.128345 0.129222 0.057213 0.135762 
0.135595 0.0645409 0.138991 0.140692 0.0934278 0.138498 0.0806615 0.148049 0.13966 
0.0430064 0.155301 0.135953 0.00351003 0.193109 0.139032 0.0139814 0.174143 0.144205 
0.00019064 0.0695292 0.0175396 
VERTICES 422 421
OFFSETS vtktypeint64
0 1 2 3 4 5 6 7 8 
9 10 11 12 13 14 15 16 17 
18 19 20 21 22 23 24 25 26 
27 28 29 30 31 32 33 34 35 
36 37 38 39 40 41 42 43 44 
45 46 47 48 49 50 51 52 53 
54 55 56 57 58 59 60 61 62 
63 64 65 66 67 68 69 70 71 
72 73 74 75 76 77 78 79 80 
81 82 83 84 85 86 87 88 89 
90 91 92 93 94 95 96 97 98 
99 100 101 102 103 104 105 106 107 
108 109 110 111 112 113 114 115 116 
117 118 119 120 121 122 123 124 125 
126 127 128 129 130 131 132 133 134 
135 136 137 138 139 140 141 142 143 
144 145 146 147 148 149 150 151 152 
153 154 155 156 157 158 159 160 161 
162 163 164 165 166 167 168 169 170 
171 172 173 174 175 176 177 178 179 
180 181 182 183 184 185 186 187 188 
189 190 191 192 193 194 195 196 197 
198 199 200 201 202 203 204 205 206 
207 208 209 210 211 212 213 214 215 
216 217 218 219 220 221 222 223 224 
225 226 227 228 229 230 231 232 233 
234 235 236 237 238 239 240 241 242 
243 244 245 246 247 248 249 250 251 
252 253 254 255 256 257 258 259 260 
261 262 263 264 265 266 267 268 269 
270 271 272 273 274 275 276 277 278 
279 280 281 282 283 284 285 286 287 
288 289 290 291 292 293 294 295 296 
297 298 299 300 301 302 303 304 305 
306 307 308 309 310 311 312 313 314 
315 316 317 318 319 320 321 322 323 
324 325 326 327 328 329 330 331 332 
333 334 335 336 337 338 339 340 341 
342 343 344 345 346 347 348 349 350 
351 352 353 354 355 356 357 358 359 
360 361 362 363 364 365 366 367 368 
369 370 371 372 373 374 375 376 377 
378 379 380 381 382 383 384 385 386 
387 388 389 390 391 392 393 394 395 
396 397 398 399 400 401 402 403 404 
405 406 407 408 409 410 411 412 413 
414 415 416 417 418 419 420 421 
CONNECTIVITY vtktypeint64
0 1 2 3 4 5 6 7 8 
9 10 11 12 13 14 15 16 17 
18 19 20 21 22 23 24 25 26 
27 28 29 30 31 32 33 34 35 
36 37 38 39 40 41 42 43 44 
45 46 47 48 49 50 51 52 53 
54 55 56 57 58 59 60 61 62 
63 64 65 66 67 68 69 70 71 
72 73 74 75 76 77 78 79 80 
81 82 83 84 85 86 87 88 89 
90 91 92 93 94 95 96 97 98 
99 100 101 102 103 104 105 106 107 
108 109 110 111 112 113 114 115 116 
117 118 119 120 121 122 123 124 125 
126 127 128 129 130 131 132 133 134 
135 136 137 138 139 140 141 142 143 
144 145 146 147 148 149 150 151 152 
153 154 155 156 157 158 159 160 161 
162 163 164 165 166 167 168 169 170 
171 172 173 174 175 176 177 178 179 
180 181 182 183 184 185 186 187 188 
189 190 191 192 193 194 195 196 197 
198 199 200 201 202 203 204 205 206 
207 208 209 210 211 212 213 214 215 
216 217 218 219 220 221 222 223 224 
225 226 227 228 229 230 231 232 233 
234 235 236 237 238 239 240 241 242 
243 244 245 246 247 248 249 250 251 
252 253 254 255 256 257 258 259 260 
261 262 263 264 265 266 267 268 269 
270 271 272 273 274 275 276 277 278 
279 280 281 282 283 284 285 286 287 
288 289 290 291 292 293 294 295 296 
297 298 299 300 301 302 303 304 305 
306 307 308 309 310 311 312 313 314 
315 316 317 318 319 320 321 322 323 
324 325 326 327 328 329 330 331 332 
333 334 335 336 337 338 339 340 341 
342 343 344 345 346 347 348 349 350 
351 352 353 354 355 356 357 358 359 
360 361 362 363 364 365 366 367 368 
369 370 371 372 373 374 375 376 377 
378 379 380 381 382 383 384 385 386 
387 388 389 390 391 392 393 394 395 
396 397 398 399 400 401 402 403 404 
405 406 407 408 409 410 411 412 413 
414 415 416 417 418 419 420 
POINT_DATA 421
FIELD FieldData 8
id 1 421 int
3781 3801 3994 3970 3744 3884 3745 2648 3937 
3894 2739 2755 2901 3917 3749 3823 3726 3907 
3785 3586 3931 3296 3023 3959 3024 3730 3981 
3773 3987 3802 3844 3852 3903 3858 3359 3180 
3403 3685 3943 3830 3711 3734 3757 3960 3908 
3242 3976 3824 2756 3716 3873 3731 3727 3808 
3949 3767 3026 3814 3877 3932 3243 3404 3360 
3181 2962 3758 3738 3774 3687 2825 3853 3918 
2961 2749 3809 3686 2823 3961 3135 3896 2824 
3878 3759 3786 3919 2482 3939 3995 3297 3787 
3244 3519 3895 3885 3938 3815 3920 3951 3133 
3925 3746 3975 3182 3971 3134 3879 3953 3845 
3982 3720 2902 3831 3688 3962 3782 3825 3803 
3835 3996 3950 3940 3909 3988 3836 3747 3810 
3631 3775 3794 3587 3955 3989 3783 3788 3847 
3854 3406 3906 3846 3728 3735 3760 3768 3911 
2826 3769 3863 3864 3461 3859 3795 3871 3941 
3910 3761 3299 2757 3721 3136 3765 3245 3407 
2964 3904 3588 3776 3898 3736 3183 3865 3817 
3754 3954 2509 3886 3804 2649 3748 3997 3874 
3963 3933 3880 3866 3855 3977 3837 3984 3887 
3921 3897 3729 3956 3632 3690 3722 3689 3848 
3875 4018 4022 4020 4024 4019 4023 4021 4017 
4010 4014 4012 4016 4011 4015 4013 4009 4002 
4006 4004 4008 4003 4007 4005 4001 3899 3849 
3161 3927 3876 3957 3905 3942 3972 3818 3934 
3952 3789 3811 3900 3741 3978 3964 3838 3762 
3860 3440 3717 2927 3784 3965 3867 2989 3922 
3025 3944 3945 3985 3796 3405 3888 3755 3856 
2867 3666 3839 3665 3819 2591 3868 3869 3208 
2481 3441 3778 3712 3826 3737 2748 3766 3812 
3770 3840 3691 3805 3966 3162 3889 3881 3386 
3832 3262 3793 3777 3806 3891 3797 3841 3827 
3813 2483 3850 2751 3929 3928 3842 3324 3851 
3763 3614 3915 2750 3713 3723 3999 3946 3771 
3973 3990 3385 3991 3890 3613 3714 3914 3913 
3882 3779 3923 3442 3870 3901 3912 3791 3764 
2690 3163 3263 3820 3732 2790 3828 3742 3084 
3718 3692 3668 3518 3979 3790 3974 3667 3986 
3998 3750 3924 2484 3916 2928 3947 3993 3892 
3756 3807 3739 3715 3719 3799 3298 3926 3751 
4000 3821 3834 3833 3862 3520 3861 2752 3752 
3209 3325 3958 3843 3772 3798 3857 3443 3780 
2550 3930 3326 3980 3829 3968 2868 3983 3822 
3733 3872 3800 3992 3935 3902 3743 3753 3521 
3792 2753 3725 3694 3883 3969 3967 3724 3936 
3444 3693 3948 3893 2754 2990 2963 
type 1 421 int
2 2 2 2 2 2 2 2 2 
2 2 2 2 2 2 2 2 2 
2 2 2 2 2 2 2 2 2 
2 2 2 2 2 2 2 2 2 
2 2 2 2 2 2 2 2 2 
2 2 2 2 2 2 2 2 2 
2 2 2 2 2 2 2 2 2 
2 2 2 2 2 2 2 2 2 
2 2 2 2 2 2 2 2 2 
2 2 2 2 2 2 2 2 2 
2 2 2 2 2 2 2 2 2 
2 2 2 2 2 2 2 2 2 
2 2 2 2 2 2 2 2 2 
2 2 2 2 2 2 2 2 2 
2 2 2 2 2 2 2 2 2 
2 2 2 2 2 2 2 2 2 
2 2 2 2 2 2 2 2 2 
2 2 2 2 2 2 2 2 2 
2 2 2 2 2 2 2 2 2 
2 2 2 2 2 2 2 2 2 
2 2 2 2 2 2 2 2 2 
2 2 2 2 2 2 2 2 2 
2 2 2 2 2 2 2 2 2 
2 2 2 2 2 2 2 2 2 
2 2 2 2 2 2 2 2 2 
2 2 2 2 2 2 2 2 2 
2 2 2 2 2 2 2 2 2 
2 2 2 2 2 2 2 2 2 
2 2 2 2 2 2 2 2 2 
2 2 2 2 2 2 2 2 2 
2 2 2 2 2 2 2 2 2 
2 2 2 2 2 2 2 2 2 
2 2 2 2 2 2 2 2 2 
2 2 2 2 2 2 2 2 2 
2 2 2 2 2 2 2 2 2 
2 2 2 2 2 2 2 2 2 
2 2 2 2 2 2 2 2 2 
2 2 2 2 2 2 2 2 2 
2 2 2 2 2 2 2 2 2 
2 2 2 2 2 2 2 2 2 
2 2 2 2 2 2 2 2 2 
2 2 2 2 2 2 2 2 2 
2 2 2 2 2 2 2 2 2 
2 2 2 2 2 2 2 2 2 
2 2 2 2 2 2 2 2 2 
2 2 2 2 2 2 2 2 2 
2 2 2 2 2 2 2 
i 3 421 int
0 0 0 0 0 0 0 0 0 
0 0 0 0 0 0 0 0 0 
0 0 0 0 0 0 0 0 0 
0 0 0 0 0 0 0 0 0 
0 0 0 0 0 0 0 0 0 
0 0 0 0 0 0 0 0 0 
0 0 0 0 0 0 0 0 0 
0 0 0 0 0 0 0 0 0 
0 0 0 0 0 0 0 0 0 
0 0 0 0 0 0 0 0 0 
0 0 0 0 0 0 0 0 0 
0 0 0 0 0 0 0 0 0 
0 0 0 0 0 0 0 0 0 
0 0 0 0 0 0 0 0 0 
0 0 0 0 0 0 0 0 0 
0 0 0 0 0 0 0 0 0 
0 0 0 0 0 0 0 0 0 
0 0 0 0 0 0 0 0 0 
0 0 0 0 0 0 0 0 0 
0 0 0 0 0 0 0 0 0 
0 0 0 0 0 0 0 0 0 
0 0 0 0 0 0 0 0 0 
0 0 0 0 0 0 0 0 0 
0 0 0 0 0 0 0 0 0 
0 0 0 0 0 0 0 0 0 
0 0 0 0 0 0 0 0 0 
0 0 0 0 0 0 0 0 0 
0 0 0 0 0 0 0 0 0 
0 0 0 0 0 0 0 0 0 
0 0 0 0 0 0 0 0 0 
0 0 0 0 0 0 0 0 0 
0 0 0 0 0 0 0 0 0 
0 0 0 0 0 0 0 0 0 
0 0 0 0 0 0 0 0 0 
0 0 0 0 0 0 0 0 0 
0 0 0 0 0 0 0 0 0 
0 0 0 0 0 0 0 0 0 
0 0 0 0 0 0 0 0 0 
0 0 0 0 0 0 0 0 0 
0 0 0 0 0 0 0 0 0 
0 0 0 0 0 0 0 0 0 
0 0 0 0 0 0 0 0 0 
0 0 0 0 0 0 0 0 0 
0 0 0 0 0 0 0 0 0 
0 0 0 0 0 0 0 0 0 
0 0 0 0 0 0 0 0 0 
0 0 0 0 0 0 0 0 0 
0 0 0 0 0 0 0 0 0 
0 0 0 0 0 0 0 0 0 
0 0 0 0 0 0 0 0 0 
0 0 0 0 0 0 0 0 0 
0 0 0 0 0 0 0 0 0 
0 0 0 0 0 0 0 0 0 
0 0 0 0 0 0 0 0 0 
0 0 0 0 0 0 0 0 0 
0 0 0 0 0 0 0 0 0 
0 0 0 0 0 0 0 0 0 
0 0 0 0 0 0 0 0 0 
0 0 0 0 0 0 0 0 0 
0 0 0 0 0 0 0 0 0 
0 0 0 0 0 0 0 0 0 
0 0 0 0 0 0 0 0 0 
0 0 0 0 0 0 0 0 0 
0 0 0 0 0 0 0 0 0 
0 0 0 0 0 0 0 0 0 
0 0 0 0 0 0 0 0 0 
0 0 0 0 0 0 0 0 0 
0 0 0 0 0 0 0 0 0 
0 0 0 0 0 0 0 0 0 
0 0 0 0 0 0 0 0 0 
0 0 0 0 0 0 0 0 0 
0 0 0 0 0 0 0 0 0 
0 0 0 0 0 0 0 0 0 
0 0 0 0 0 0 0 0 0 
0 0 0 0 0 0 0 0 0 
0 0 0 0 0 0 0 0 0 
0 0 0 0 0 0 0 0 0 
0 0 0 0 0 0 0 0 0 
0 0 0 0 0 0 0 0 0 
0 0 0 0 0 0 0 0 0 
0 0 0 0 0 0 0 0 0 
0 0 0 0 0 0 0 0 0 
0 0 0 0 0 0 0 0 0 
0 0 0 0 0 0 0 0 0 
0 0 0 0 0 0 0 0 0 
0 0 0 0 0 0 0 0 0 
0 0 0 0 0 0 0 0 0 
0 0 0 0 0 0 0 0 0 
0 0 0 0 0 0 0 0 0 
0 0 0 0 0 0 0 0 0 
0 0 0 0 0 0 0 0 0 
0 0 0 0 0 0 0 0 0 
0 0 0 0 0 0 0 0 0 
0 0 0 0 0 0 0 0 0 
0 0 0 0 0 0 0 0 0 
0 0 0 0 0 0 0 0 0 
0 0 0 0 0 0 0 0 0 
0 0 0 0 0 0 0 0 0 
0 0 0 0 0 0 0 0 0 
0 0 0 0 0 0 0 0 0 
0 0 0 0 0 0 0 0 0 
0 0 0 0 0 0 0 0 0 
0 0 0 0 0 0 0 0 0 
0 0 0 0 0 0 0 0 0 
0 0 0 0 0 0 0 0 0 
0 0 0 0 0 0 0 0 0 
0 0 0 0 0 0 0 0 0 
0 0 0 0 0 0 0 0 0 
0 0 0 0 0 0 0 0 0 
0 0 0 0 0 0 0 0 0 
0 0 0 0 0 0 0 0 0 
0 0 0 0 0 0 0 0 0 
0 0 0 0 0 0 0 0 0 
0 0 0 0 0 0 0 0 0 
0 0 0 0 0 0 0 0 0 
0 0 0 0 0 0 0 0 0 
0 0 0 0 0 0 0 0 0 
0 0 0 0 0 0 0 0 0 
0 0 0 0 0 0 0 0 0 
0 0 0 0 0 0 0 0 0 
0 0 0 0 0 0 0 0 0 
0 0 0 0 0 0 0 0 0 
0 0 0 0 0 0 0 0 0 
0 0 0 0 0 0 0 0 0 
0 0 0 0 0 0 0 0 0 
0 0 0 0 0 0 0 0 0 
0 0 0 0 0 0 0 0 0 
0 0 0 0 0 0 0 0 0 
0 0 0 0 0 0 0 0 0 
0 0 0 0 0 0 0 0 0 
0 0 0 0 0 0 0 0 0 
0 0 0 0 0 0 0 0 0 
0 0 0 0 0 0 0 0 0 
0 0 0 0 0 0 0 0 0 
0 0 0 0 0 0 0 0 0 
0 0 0 0 0 0 0 0 0 
0 0 0 0 0 0 0 0 0 
0 0 0 0 0 0 0 0 0 
0 0 0 0 0 0 0 0 0 
0 0 0 0 0 0 0 0 0 
0 0 0 
v 3 421 double
0.011437581343 0.0064495035338 -0.011133559874 0.010048934566 -0.00070430313784 0.0034683114765 -0.015970077835 0.15166809512 0.0078683031147 
-0.13317801248 0.16221021249 0.0070055395523 0.0084999301845 0.1323890659 0.0081926522313 0.0041098429884 0.30328549985 0.0085481915591 
-0.0056303209371 0.0085283445581 0.016039859049 -0.027173646627 0.011902077028 0.021408443641 0.00042695319134 0.13846042764 0.029105660503 
0.0046274359853 0.008066801115 -0.0032981339191 0.0086390268809 0.038845535794 -0.0015567670795 -0.015825932323 -0.0093599622889 0.054880867859 
0.019798951085 0.040401127349 0.0076420378047 -0.078830096885 0.05744859893 0.00019912973901 -0.19048707261 0.037453699347 -0.044591951551 
-0.027682094838 0.035560805087 0.07204171858 0.088754276994 0.22662720955 0.01755179333 0 0.410001241 0 
-0.021953360345 0.025884201396 0.04599242959 -0.052806535397 0.024323413529 0.073682984456 -0.055110835015 0.016838623604 0.044337729087 
0.012718550083 0.067616469755 0.01425317236 -0.032235806057 0.015450186834 0.090000174597 -0.00066328633309 0.27334262606 0.093316999735 
0.012445841211 0.010247161759 0.022377678425 -0.0073663242247 0.069707047504 -0.21902865838 0.096087284017 0.12261288527 -0.004294039915 
-0.046543241901 0.073906791384 0.057776194531 -0.031250205073 0.21919385107 0.082559184695 -0.040956546694 0.26237529859 -0.077021290032 
-0.023837693753 0.013424326694 0.030482934101 -0.024108631974 0.052866387327 -0.0092589620461 0.035121297983 0.12847363527 0.096812815135 
0.0527175037 0.1461298439 -0.014994661505 -0.097613623005 0.14261836488 -0.069878233524 -0.005644904192 0.11634111591 0.004857108426 
-0.0096575554909 0.27005267014 0.0080604148417 0.12933529232 0.042588217061 0.051919416551 0.010421709988 0.032597662155 0.089304931032 
-0.02568388976 0.17898130461 0.043235618101 0.15312727312 0.17656285951 -0.0069606360303 0 0.39896583638 0 
0.17906924697 0.04465336239 0.12954131523 -0.097092786944 0.060812066546 0.13240196031 -0.21558529215 -0.019513045433 -0.17941226195 
8.7304082862e-05 0.05658216547 0.0490846904 -0.00010155981897 0.4026845298 0.00010091191765 0 0.4099646538 0 
0 0.39895779965 -0.0048950405667 0.084560273476 0.0049494460269 0.023097140815 -0.041178332009 0.14957725344 0.14796284926 
-0.10514529648 0.01736526256 0.032910920883 -0.023683525094 0.038479039595 0.077669425022 0.022134701501 0.099469048355 -0.23615431165 
0 0.39875905054 0 -0.004507024569 0.40045571211 -0.019038581245 -1.4485258125e-05 0.39873630553 -3.634419112e-05 
0.12737850624 0.034248587914 0.14055173702 -0.051741169069 0.04058371722 -0.053836692909 0.0048568421874 0.08945452959 -0.10391745121 
0.0073616794846 0.22860097262 0.0056379145434 0.013750131286 0.41310435568 -0.010249234026 -0.1093329276 0.013073293453 -0.054392005946 
-0.0006249839803 0.39654364795 -0.0035443033661 -0.0039167831326 0.051254836739 -0.001557137884 0.21273066105 0.083784470045 0.0040210919325 
-0.30322048806 -0.00067532323441 -0.23970168846 0.1287683514 0.19121853907 0.11076579337 0 0.39374558319 -0.0047274651976 
0 0.41049660782 0 0.021593665187 0.0095357454859 0.083271952659 0.016865480206 0.009155321853 -0.074806218358 
0.0720265258 0.092481050782 0.10567728676 -0.035862658324 0.090291244517 0.064308977049 0.088817694295 0.1124998154 -0.053149249242 
-0.082935369571 0.12454513688 0.22031739751 0.048239276178 0.099225294711 0.24497616456 0.095677381331 0.0044200649861 -0.086041273012 
0.011388376557 0.041364487349 -0.11565082641 -0.10659233928 0.13529730026 -0.13355815864 0.14831821886 0.096433713588 0.0054818525004 
0 0.39904491296 0 0 0.40508628054 1.1391752074e-05 0.068650783752 0.018026213225 0.060475464125 
0.13889610943 -0.022972110717 0.059703086428 -0.019593090008 0.057115403233 0.099738465183 -0.016476201133 0.099454444818 -0.084306564822 
0.12518364674 0.04463514701 -0.036070623762 0.029577089408 0.051621073356 0.036709279218 0.10344903995 0.054815171856 -0.0038259629395 
-0.011140416409 0.097767829241 -0.12921837017 -0.081077584478 0.27179021998 -0.19453844851 0 0.38773520475 0 
-0.040935584861 0.0080659946873 -0.037605969439 0.031590655792 0.043572963739 -0.02529784089 0.0094198569489 0.15103026516 -0.022541178981 
0.028538407798 0.025056636625 -0.064268107381 -0.21790221434 0.32928022902 -0.28065155463 -0.0030995011966 0.4005287818 -0.0015598553611 
-0.018571401806 -0.051539648957 0.048146307145 -0.02456028625 0.011359228832 -0.0113720337 0.027032685635 0.021794619309 -0.024559164227 
-0.05241557277 -7.6474465414e-05 -0.038101718797 -0.079995245439 -0.017084149868 -0.024509996072 0.0017389604782 0.39882328398 -0.0017389604782 
-0.033229108723 0.13146619811 -0.072439225811 -0.15104217532 0.21350433729 -0.08847513098 -0.018713004647 0.38875185117 7.8913229596e-15 
-0.0021145546064 0.038207161077 0.086087109658 -0.047772226234 0.0132061549 0.03151757883 0.047105971364 0.047126373854 0.013261584049 
-0.04239299415 0.032731008683 -0.025360640441 0.0050133738183 0.03415893043 0.0051985059679 0.080529813377 0.0057628936695 0.0071294393731 
0.077184004256 0.066064098953 0.077633274331 -0.0094375276358 0.047072839183 -0.0043676764478 -0.0039913111495 0.045910097796 0.029473773607 
0.14414420127 0.070733586407 0.116579113 -0.0061600299512 0.11429591419 0.13432692073 0.017297158063 0.051523199259 0.034196204277 
0.058087612515 0.020893658911 0.057573748421 -0.093883439559 0.14252171153 0.082969879669 -0.029513261594 0.16173266479 0.02841832475 
0.058714015235 0.0017270508604 -0.0052240249124 0.045861773211 0.010416166083 0.066043061475 0.073524872124 -0.0089080269211 0.085640873075 
-0.046054797591 0.035397971386 0.092164701031 -0.021958819501 0.054191597684 0.048298013441 -0.0021049833578 0.38899466784 -0.000126565171 
0.015342748692 0.015639683378 -0.032806018651 0.024759942221 0.078324211804 0.044473428344 -0.00052740355422 0.38710693906 -0.0011288573072 
-0.0020887119363 0.38986351732 -0.0070491576428 -0.0096835260449 0.035256949499 0.052062394919 -0.029110559063 0.018207847277 -0.076876075613 
-0.065001341762 0.019554148352 0.081816480773 0.0058662362083 -0.0047575354982 0.1205492242 -0.19451755495 0.039668183639 -0.064885900376 
0.13707801014 0.10385176188 0.11392848556 -0.028734807798 0.24194419456 -0.0010331898798 0 0.41007381017 0 
-0.055878085168 0.018552676409 0.077319089015 0.015763933914 0.0065948336356 0.094849352011 0.047063978182 0.041759266265 -0.02083733871 
-0.0016610994383 0.29654940525 0.0087496036546 0.0020429030869 0.39521847008 -0.0010600737839 0.048787878444 0.025521855283 0.10157198777 
0.072092493958 0.016689547551 -0.0060944951496 0.048689639876 0.084903789202 0.047570047855 0.012190777852 0.32929773123 0.012633784709 
0 0.41052549956 0 0.091413329724 -0.020382990837 0.10182231993 0.031131950044 0.032706997154 0.10031977015 
-0.13645977946 0.12244416595 0.087249181893 -0.018697854525 0.19836571032 0.034234384001 0 0.39882697079 0 
0.00010325432685 0.40108221516 -0.0062223017539 0.047994318171 0.039418765254 0.071322416347 -0.00044574958215 0.029243049089 0.10201140501 
-0.076416026534 0.17725342488 -0.024615689046 0.00056348824668 0.40152978625 0.00027402949384 0.0023122065005 0.39628274053 0.0023597342796 
-0.00010325432685 0.39693094846 -0.0034834038764 0.044804293718 0.32049728826 -0.0062287931832 0 0.38755395842 -0.0050852537353 
0.08060329694 0.0325350987 0.01274380369 0.0002814165965 0.39586236908 -0.0042450652735 0 0.39872827304 0 
-8.0938774001e-06 0.39894161244 0 -0.00036883905222 0.40129851273 -0.0077537456699 0 0.38761842277 0 
0.16820795446 0.029549338883 0.12446726565 -0.012212897362 0.075823784745 -0.18361467497 -0.0033082998542 0.13377592098 -0.0033247496929 
0.0012503121485 0.38702661056 -0.005926866043 0 0.41016565709 9.1963837408e-06 -0.0046666478446 0.28784143851 -0.0046798590522 
0.0002436659938 0.41148920957 0.0063921664547 0.033991363402 0.19247764267 -0.017820487125 0.042256730961 0.27150018908 0.1254322865 
-0.018673129003 0.22509155007 0.014510142177 0 0.3987994427 6.9043932791e-06 -0.027545708121 0.38422685286 0.11030070993 