# vtk DataFile Version 5.1
Generated by LIGGGHTS
ASCII
DATASET POLYDATA
POINTS 407 float
-0.139975 0.0558001 -0.143957 -0.116975 0.0555081 -0.142949 -0.0685994 0.0559067 -0.142931 
-0.0968739 0.0663145 -0.144626 -0.143584 0.0697492 -0.14462 -0.0931298 0.0769115 -0.144633 
-0.0751759 0.0793652 -0.14453 -0.0503977 0.100165 -0.14474 -0.112302 0.0619145 -0.1363 
-0.132186 0.0744742 -0.136508 -0.0232611 0.0742783 -0.14042 -0.027499 0.0903232 -0.135736 
-0.144761 0.0581544 -0.134588 -0.133391 0.0580766 -0.132458 -0.123679 0.0574427 -0.129958 
-0.071267 0.0561144 -0.12976 -0.0482519 0.0602461 -0.130862 -0.059454 0.0704256 -0.132374 
-0.114749 0.0773616 -0.131165 -0.0233909 0.102916 -0.130155 -0.127336 0.117434 -0.131567 
-0.143402 0.0553825 -0.12183 -0.111456 0.0582028 -0.126364 -0.03924 0.0642459 -0.122334 
-0.0199643 0.0710777 -0.126431 -0.0052398 0.0753386 -0.126018 -0.104268 0.0826193 -0.126363 
-0.108742 0.0655178 -0.116804 -0.053352 0.0756654 -0.115144 -0.00295087 0.0789771 -0.114255 
-0.0274047 0.0595111 -0.107937 -0.0169346 0.0558381 -0.112221 -0.0019733 0.0551416 -0.111175 
-0.0829663 0.0618986 -0.105485 -0.00885962 0.0658295 -0.110188 -0.0105115 0.0749898 -0.106211 
-0.0804917 0.0828541 -0.11214 -0.0626104 0.102389 -0.110409 -0.0816618 0.129594 -0.111192 
-0.0941059 0.0602349 -0.103412 -0.0426372 0.0627313 -0.103952 -0.0925436 0.0828889 -0.100461 
-0.0602759 0.0809441 -0.102984 -0.0175414 0.0882963 -0.0976611 -0.0376925 0.138524 -0.103091 
-0.0345617 0.081948 -0.0945276 -0.0190872 0.0553918 -0.0870601 -0.0426952 0.0766695 -0.0886197 
-0.0689791 0.107196 -0.0869919 -0.0862438 0.129476 -0.0889079 -0.051051 0.156639 -0.0831766 
-0.105307 0.175173 -0.089516 -0.111095 0.0586054 -0.0791766 -0.0925272 0.0600648 -0.0765688 
-0.13806 0.073453 -0.0780346 -0.0177774 0.0573327 -0.0743065 -0.0747446 0.0863131 -0.07596 
-0.0848825 0.109429 -0.0727564 -0.0630329 0.133603 -0.0695577 -0.115327 0.152952 -0.0710458 
-0.0182164 0.0624099 -0.0609138 -0.0510678 0.0832189 -0.0588157 -0.131806 0.0990213 -0.0596636 
-0.116854 0.0990712 -0.0617221 -0.0216041 0.151893 -0.0618671 -0.110618 0.0609528 -0.0534599 
-0.0566901 0.064352 -0.0549316 -0.0749207 0.0712728 -0.0548998 -0.0366617 0.0901406 -0.0549315 
-0.0122219 0.150147 -0.0526781 -0.117706 0.0554864 -0.0467246 -0.0855798 0.0550929 -0.0517253 
-0.00738802 0.0583117 -0.0452488 -0.0897723 0.0670155 -0.0456456 -0.00385123 0.0689918 -0.0473303 
-0.0825843 0.141791 -0.0485942 -0.0529626 0.159718 -0.0495144 -0.14014 0.0552793 -0.0395497 
-0.0773791 0.0555812 -0.0361855 -0.0787625 0.0653381 -0.0341494 -0.00198103 0.0673996 -0.0346133 
-0.0621151 0.0713258 -0.0331917 -0.0199805 0.0746621 -0.0326889 -0.0480681 0.0814643 -0.0327308 
-0.104349 0.117946 -0.0326997 -0.127583 0.135959 -0.0307972 -0.0601728 0.0552247 -0.0272874 
-0.114285 0.0689167 -0.0273569 -0.0641234 0.0653478 -0.0251617 -0.0515367 0.0761541 -0.0230601 
-0.128455 0.0675147 -0.0207011 -0.0548047 0.0651234 -0.0206697 -0.0887796 0.0744205 -0.0172915 
-0.0488331 0.11351 -0.019761 -0.0770996 0.0598584 -0.00987705 -0.0709266 0.081302 -0.0113344 
-0.0216465 0.0946297 -0.010107 -0.0169124 0.152425 -0.0112531 -0.140586 0.058719 -0.00513974 
-0.103703 0.0563902 -0.00518711 -0.111128 0.0617999 -0.000706057 -0.132959 0.0830523 -0.00703234 
-0.143051 0.089331 -0.00675986 -0.00794747 0.112804 -0.0049966 -0.0433875 0.120268 -0.00115547 
-0.0257783 0.152021 -0.0029417 -0.11978 0.0592951 0.00606907 -0.0931766 0.0569551 0.00435042 
-0.0774486 0.0562652 0.000241063 -0.0505648 0.0551923 0.00141733 -0.0413964 0.0577912 0.00539269 
-0.134606 0.0624515 0.00661992 -0.0927625 0.0670291 0.000857082 -0.0117921 0.0751946 0.0019729 
-0.000277289 0.0781297 0.00377103 -0.00948665 0.10538 0.00581572 -0.144679 0.05694 0.0129156 
-0.0574915 0.0556067 0.0120603 -0.113351 0.0686077 0.0119065 -0.103305 0.0648305 0.00864405 
-0.0219044 0.0637089 0.0112274 -0.0493217 0.0704634 0.0138873 -0.103214 0.0829933 0.011593 
-0.089131 0.0820178 0.0146196 -0.113943 0.0925338 0.0123904 -0.0950534 0.0589074 0.0215121 
-0.0820823 0.0617816 0.0219107 -0.0173744 0.055808 0.0198831 -0.129167 0.0633022 0.0154488 
-0.119169 0.0625592 0.019558 -0.00735554 0.0633717 0.0163764 -0.136807 0.0549993 0.0252857 
-0.0538043 0.0561363 0.0238335 -0.0274828 0.0681422 0.0296321 -0.133421 0.0724702 0.0273974 
-0.0311471 0.079013 0.0290191 -0.0867789 0.127052 0.0242754 -0.0413636 0.174984 0.0287678 
-0.065742 0.0572547 0.0364672 -0.126293 0.0665112 0.0338532 -0.0369561 0.0624687 0.0322198 
-0.0426705 0.101431 0.0366153 -0.102504 0.128627 0.0352329 -0.120461 0.0581754 0.0401794 
-0.0909028 0.0557416 0.0403541 -0.127288 0.0879292 0.0437509 -0.0660782 0.142117 0.0377727 
-0.140399 0.0554884 0.046857 -0.0801105 0.0557336 0.0505876 -0.0341822 0.0603859 0.0462219 
-0.0150117 0.0555294 0.0450071 -0.0128165 0.0679948 0.0477917 -0.0993484 0.132608 0.0494954 
-0.0896742 0.12996 0.0462079 -0.0102868 0.0592675 0.0578539 -0.130178 0.0634227 0.0589539 
-0.0861925 0.0753298 0.0577946 -0.124108 0.083232 0.0576882 -0.0690919 0.084408 0.0601622 
-0.11254 0.10875 0.0572868 -0.0401407 0.132729 0.0590509 -0.141921 0.0562729 0.0629977 
-0.0483513 0.0604349 0.0641633 -0.106768 0.148512 0.062131 -0.0515694 0.157269 0.0621647 
-0.129627 0.14628 0.0743042 -0.139679 0.15078 0.0708613 -0.0517667 0.153431 0.0716932 
-0.01646 0.0860717 0.0760212 -0.0893216 0.102504 0.0781424 -0.0260893 0.141872 0.0822164 
-0.061589 0.0623913 0.0888075 -0.142697 0.0988317 0.0849251 -0.0419098 0.115298 0.087511 
-0.141346 0.138392 0.0840536 -0.120297 0.150829 0.0836254 -0.111686 0.121329 0.090716 
-0.0169162 0.123468 0.0973861 -0.0292344 0.0907282 0.100897 -0.056376 0.0974032 0.100154 
-0.121042 0.114015 0.0999366 -0.140335 0.132389 0.104456 -0.0811613 0.140697 0.100644 
-0.0297433 0.141817 0.100389 -0.0639661 0.0937091 0.10819 -0.0749973 0.100873 0.111444 
-0.0691045 0.115703 0.106367 -0.0364833 0.0636699 0.112625 -0.0592947 0.0823524 0.112862 
-0.109689 0.112845 0.113555 -0.041801 0.121988 0.114784 -0.0292769 0.125189 0.112856 
-0.0502498 0.105933 0.123192 -0.132027 0.117409 0.121247 -0.0316938 0.0554126 0.131085 
-0.123145 0.104886 0.130515 -0.102696 0.10647 0.130101 -0.130643 0.0678933 0.140979 
-0.0730197 0.0839592 0.136805 -0.066447 0.0918145 0.137263 -0.0480514 0.115078 0.138935 
-0.086688 0.0552307 0.143409 -0.0320277 0.0603839 0.144781 -0.0792023 0.0755599 0.143402 
-0.089093 0.13716 0.1437 -0.0933053 0.210821 0.052457 -0.0933051 0.205087 0.0524566 
-0.0890104 0.210821 0.052457 -0.0890102 0.205087 0.0524566 -0.0933053 0.21082 0.0567519 
-0.0933051 0.205087 0.0567515 -0.0890104 0.21082 0.0567519 -0.0890102 0.205087 0.0567515 
0.0133628 0.0553159 -0.144883 0.022729 0.0610179 -0.14486 0.0417309 0.0554312 -0.142631 
0.00715636 0.0664907 -0.143437 0.0935272 0.0692105 -0.14468 0.144907 0.0858251 -0.144133 
0.13014 0.100779 -0.144306 0.106092 0.104059 -0.144974 0.00711811 0.0560828 -0.136746 
0.0315965 0.0562656 -0.139037 0.116806 0.0566947 -0.141306 0.0505645 0.0655604 -0.138163 
0.0624807 0.0698968 -0.139992 0.0239023 0.075745 -0.13736 0.0112939 0.0786378 -0.140743 
0.0243204 0.0614601 -0.133229 0.0861786 0.0565303 -0.130519 0.116684 0.0569877 -0.130383 
0.0114116 0.0653888 -0.132431 0.0399984 0.0617774 -0.128173 0.0327917 0.0699465 -0.128947 
0.0566463 0.0714728 -0.127874 0.0970704 0.0875169 -0.13426 0.143649 0.0581427 -0.119822 
0.0893952 0.0738157 -0.127447 0.119769 0.107475 -0.12259 0.0773206 0.0619627 -0.11742 
0.025868 0.0728672 -0.118623 0.100069 0.114025 -0.118492 0.0307925 0.0571316 -0.107847 
0.0645512 0.0744865 -0.112617 0.0661895 0.086822 -0.105503 0.0331273 0.101277 -0.111459 
0.0421296 0.0952102 -0.106508 0.117877 0.123558 -0.105044 0.0386579 0.0578347 -0.101219 
0.10375 0.0610527 -0.105099 0.00390129 0.0657978 -0.101535 0.0366846 0.0686532 -0.0925141 
0.0613811 0.0636901 -0.0957943 0.0241075 0.0708977 -0.0958154 0.0605943 0.0790978 -0.0964239 
0.0914407 0.11343 -0.0935657 0.136214 0.118248 -0.0935023 0.00577794 0.0608122 -0.0877725 
0.0179934 0.0560564 -0.0888065 0.048367 0.0565059 -0.0881724 0.110897 0.0587264 -0.0888993 
0.127992 0.055076 -0.0873749 0.0543834 0.0662075 -0.0880984 0.0594437 0.088763 -0.0829111 
0.111859 0.0875294 -0.0870776 0.0442403 0.0996828 -0.0853551 0.0738837 0.11622 -0.0868952 
0.0151576 0.0674386 -0.0793294 0.028635 0.0658249 -0.0812546 0.0624555 0.0654733 -0.0756869 
0.0495857 0.0731107 -0.0802093 0.0930429 0.076315 -0.0818078 0.00664967 0.112666 -0.0739313 
0.01942 0.0619792 -0.0692274 0.0394643 0.0820868 -0.0732085 0.107848 0.107268 -0.0704394 
0.0791795 0.122849 -0.0730721 0.0738436 0.0618442 -0.0662423 0.061648 0.105244 -0.0655876 
0.0200805 0.0586862 -0.057042 0.0278858 0.0949765 -0.0529848 0.0515644 0.100764 -0.0530932 
0.0853605 0.120775 -0.0564998 0.116199 0.124913 -0.055687 0.0658769 0.13171 -0.0534437 
0.12489 0.0615927 -0.0455709 0.143299 0.0667722 -0.0462869 0.0225677 0.0718587 -0.0447313 
0.0549366 0.0831596 -0.0497083 0.0411973 0.108229 -0.0453823 0.0453627 0.075953 -0.0407407 
0.0190018 0.0892319 -0.039846 0.140414 0.0916442 -0.0409935 0.0119753 0.114419 -0.0392708 
0.0682015 0.113749 -0.0405512 0.0841556 0.121179 -0.0401579 0.0429123 0.0628018 -0.0307762 
0.134858 0.0757648 -0.0318255 0.0373955 0.141505 -0.0356362 0.0845747 0.0563324 -0.0275995 
0.059435 0.08608 -0.0252154 0.019059 0.101748 -0.0269859 0.108319 0.0552008 -0.0197259 
0.14366 0.0699965 -0.0162713 0.0713943 0.0877682 -0.0229093 0.0505471 0.101362 -0.0202955 
0.142739 0.0968421 -0.0204301 0.0632576 0.0643775 -0.015478 0.0458319 0.0705683 -0.0116375 
0.0936687 0.0739707 -0.0141472 0.139726 0.0888332 -0.0109043 0.043435 0.136641 -0.00639225 
0.0350524 0.0583695 -0.00532591 0.0439013 0.0561636 -0.000602267 0.120565 0.0582264 -0.00163555 
0.0803005 0.0814696 -0.00278833 0.0544982 0.0991595 -0.0039246 0.144919 0.109788 -0.00586175 
0.0120172 0.116214 -0.0040003 0.072541 0.05634 0.00707057 0.130731 0.0638262 0.00587093 
0.139558 0.0701878 0.000336492 0.115037 0.0597182 0.0138581 0.0796259 0.0694719 0.0122104 
0.113135 0.0751492 0.00809998 0.0245133 0.079797 0.0114178 0.0203459 0.11582 0.0080895 
0.116121 0.112377 0.0131014 0.0444726 0.0598992 0.0225894 0.0895905 0.060341 0.0195922 
0.103201 0.0612731 0.0199178 0.0956488 0.073391 0.016041 0.104236 0.0579417 0.0297364 
0.0727122 0.0673093 0.0249907 0.0254436 0.103686 0.0240569 0.084965 0.0573575 0.0317806 
0.0605045 0.0694055 0.0337471 0.135401 0.0630592 0.0367954 0.107089 0.0728682 0.0324788 
0.0171246 0.0821602 0.0372181 0.0488477 0.0809735 0.0297587 0.124988 0.0556304 0.0399733 
0.0620914 0.066197 0.043905 0.142107 0.0677052 0.0426355 0.0837494 0.0708402 0.0390367 
0.0463049 0.0817831 0.041617 0.0315408 0.132573 0.0388379 0.104955 0.131991 0.0432673 
0.0123747 0.0551405 0.0491614 0.0272286 0.0570893 0.0475919 0.0764361 0.0566662 0.0459331 
0.021873 0.069633 0.0470078 0.133377 0.0623835 0.0486035 0.0729007 0.0621004 0.0537462 
0.111569 0.0682391 0.0566268 0.0852251 0.100098 0.0569815 0.000976386 0.125898 0.0533964 
0.0402759 0.11912 0.0570496 0.0436044 0.0564774 0.0625615 0.112478 0.102566 0.0615105 
0.000582045 0.119863 0.0631793 0.0996679 0.143545 0.0670022 0.00586904 0.0688018 0.0733335 
0.119916 0.0681984 0.076242 0.135236 0.137743 0.0715073 0.108281 0.151931 0.0738368 
0.0212624 0.0550644 0.0817558 0.127743 0.0752536 0.0757144 0.0365911 0.081911 0.0814046 
0.0970737 0.0879328 0.0837457 0.137775 0.110472 0.0773843 0.0494523 0.139174 0.0803134 
0.141917 0.070508 0.0874202 0.0462356 0.0972373 0.0860459 0.142846 0.0595774 0.0932055 
0.103197 0.0681209 0.0961232 0.0151355 0.0832107 0.0906967 0.102738 0.0891461 0.0937155 
0.0885859 0.123739 0.090139 0.0139595 0.0604154 0.10032 0.0714667 0.0558254 0.100548 
0.0550043 0.0797223 0.105114 0.126369 0.0909784 0.104905 0.0239621 0.110311 0.105788 
0.070338 0.122952 0.104506 0.137428 0.073041 0.110308 0.00301465 0.0825316 0.106652 
0.0162675 0.0551636 0.116968 0.0676762 0.0889605 0.113895 0.0765984 0.137603 0.117528 
0.043146 0.149903 0.116818 0.0267685 0.0632977 0.123614 0.0374859 0.0799106 0.1224 
0.0682094 0.0796973 0.121117 0.0142145 0.140807 0.122644 0.0834426 0.0577663 0.128571 
0.021684 0.0753199 0.129504 0.128198 0.144026 0.12871 0.138349 0.0616284 0.138509 
0.122914 0.0627818 0.140799 0.0260036 0.0844299 0.13499 0.132631 0.082622 0.14039 
0.0806615 0.112045 0.139745 0.0430596 0.11916 0.136214 0.0039375 0.157376 0.139324 
0.0141007 0.141921 0.144576 0.114879 0.152804 0.1432 
VERTICES 408 407
OFFSETS vtktypeint64
0 1 2 3 4 5 6 7 8 
9 10 11 12 13 14 15 16 17 
18 19 20 21 22 23 24 25 26 
27 28 29 30 31 32 33 34 35 
36 37 38 39 40 41 42 43 44 
45 46 47 48 49 50 51 52 53 
54 55 56 57 58 59 60 61 62 
63 64 65 66 67 68 69 70 71 
72 73 74 75 76 77 78 79 80 
81 82 83 84 85 86 87 88 89 
90 91 92 93 94 95 96 97 98 
99 100 101 102 103 104 105 106 107 
108 109 110 111 112 113 114 115 116 
117 118 119 120 121 122 123 124 125 
126 127 128 129 130 131 132 133 134 
135 136 137 138 139 140 141 142 143 
144 145 146 147 148 149 150 151 152 
153 154 155 156 157 158 159 160 161 
162 163 164 165 166 167 168 169 170 
171 172 173 174 175 176 177 178 179 
180 181 182 183 184 185 186 187 188 
189 190 191 192 193 194 195 196 197 
198 199 200 201 202 203 204 205 206 
207 208 209 210 211 212 213 214 215 
216 217 218 219 220 221 222 223 224 
225 226 227 228 229 230 231 232 233 
234 235 236 237 238 239 240 241 242 
243 244 245 246 247 248 249 250 251 
252 253 254 255 256 257 258 259 260 
261 262 263 264 265 266 267 268 269 
270 271 272 273 274 275 276 277 278 
279 280 281 282 283 284 285 286 287 
288 289 290 291 292 293 294 295 296 
297 298 299 300 301 302 303 304 305 
306 307 308 309 310 311 312 313 314 
315 316 317 318 319 320 321 322 323 
324 325 326 327 328 329 330 331 332 
333 334 335 336 337 338 339 340 341 
342 343 344 345 346 347 348 349 350 
351 352 353 354 355 356 357 358 359 
360 361 362 363 364 365 366 367 368 
369 370 371 372 373 374 375 376 377 
378 379 380 381 382 383 384 385 386 
387 388 389 390 391 392 393 394 395 
396 397 398 399 400 401 402 403 404 
405 406 407 
CONNECTIVITY vtktypeint64
0 1 2 3 4 5 6 7 8 
9 10 11 12 13 14 15 16 17 
18 19 20 21 22 23 24 25 26 
27 28 29 30 31 32 33 34 35 
36 37 38 39 40 41 42 43 44 
45 46 47 48 49 50 51 52 53 
54 55 56 57 58 59 60 61 62 
63 64 65 66 67 68 69 70 71 
72 73 74 75 76 77 78 79 80 
81 82 83 84 85 86 87 88 89 
90 91 92 93 94 95 96 97 98 
99 100 101 102 103 104 105 106 107 
108 109 110 111 112 113 114 115 116 
117 118 119 120 121 122 123 124 125 
126 127 128 129 130 131 132 133 134 
135 136 137 138 139 140 141 142 143 
144 145 146 147 148 149 150 151 152 
153 154 155 156 157 158 159 160 161 
162 163 164 165 166 167 168 169 170 
171 172 173 174 175 176 177 178 179 
180 181 182 183 184 185 186 187 188 
189 190 191 192 193 194 195 196 197 
198 199 200 201 202 203 204 205 206 
207 208 209 210 211 212 213 214 215 
216 217 218 219 220 221 222 223 224 
225 226 227 228 229 230 231 232 233 
234 235 236 237 238 239 240 241 242 
243 244 245 246 247 248 249 250 251 
252 253 254 255 256 257 258 259 260 
261 262 263 264 265 266 267 268 269 
270 271 272 273 274 275 276 277 278 
279 280 281 282 283 284 285 286 287 
288 289 290 291 292 293 294 295 296 
297 298 299 300 301 302 303 304 305 
306 307 308 309 310 311 312 313 314 
315 316 317 318 319 320 321 322 323 
324 325 326 327 328 329 330 331 332 
333 334 335 336 337 338 339 340 341 
342 343 344 345 346 347 348 349 350 
351 352 353 354 355 356 357 358 359 
360 361 362 363 364 365 366 367 368 
369 370 371 372 373 374 375 376 377 
378 379 380 381 382 383 384 385 386 
387 388 389 390 391 392 393 394 395 
396 397 398 399 400 401 402 403 404 
405 406 
POINT_DATA 407
FIELD FieldData 8
id 1 407 int
3781 3745 2648 3994 3801 3970 3744 3884 2755 
3823 3937 3726 3894 2739 3785 3931 2901 3917 
3023 3959 3907 3024 3586 3296 3749 3773 3987 
3981 3903 3025 3852 3844 3730 3685 3943 3858 
3180 3802 3403 3757 3960 3359 3830 3711 3734 
3873 3405 3242 3976 3824 2756 3740 3727 3814 
3716 3731 3908 3949 3767 3026 3877 3686 2823 
3243 3404 2961 3808 3932 3774 3181 3853 3360 
2962 3758 2749 3687 2825 3297 3918 3786 2482 
2824 3738 3809 3878 3759 3961 3135 3919 3995 
3896 3787 3939 3895 3938 3996 3244 3133 3925 
3885 3182 3815 3920 3519 3845 3134 2902 3720 
3746 3975 3782 3982 3971 3879 3263 3953 3688 
3962 3950 3831 3835 3940 3909 3988 3951 3631 
3775 3810 3825 3803 2963 3836 3747 3587 3955 
3846 3794 3816 3788 3854 3406 3989 3783 3760 
3768 3728 3735 3863 3911 3461 3847 3906 3769 
2826 3871 3864 3910 3941 3761 3859 3795 3721 
3136 3299 2757 3407 3245 2964 3765 3904 3588 
3754 3776 3898 3736 3183 3865 3817 2509 3874 
3886 3804 3748 2649 3997 3837 3880 3954 3963 
3933 3866 3855 3984 3887 3977 3921 3897 3729 
3956 3632 3690 3689 3848 3875 3722 4004 4002 
4008 4006 4005 4003 4001 4007 3899 3849 3161 
3927 3900 3876 3905 3942 3972 3818 3934 3838 
3811 3789 3952 3964 3741 3717 3978 2927 3762 
3860 3957 3867 3440 3965 2989 3922 3944 3888 
3784 3985 3796 2867 3839 3665 3945 3819 3770 
3755 3208 3856 3666 3868 3766 3737 2748 3812 
3869 2591 3840 3712 3691 3826 2481 3889 3162 
3778 3441 3793 3805 3881 3386 3832 3777 3262 
3966 3891 3797 3841 3827 3813 2483 3850 3763 
3806 3929 3999 3915 2751 2750 3928 3842 3385 
3946 3713 3324 3613 3990 3851 3890 3614 3973 
3771 3723 3991 3923 3913 3518 3714 3779 3914 
3870 3901 3912 3882 3764 3791 3442 2690 3820 
3828 2790 3084 3742 3790 3718 3692 3732 3979 
3667 3986 3974 3750 3947 3998 3924 3668 2928 
3739 3715 3892 2484 3756 3807 3298 3926 3916 
3719 3751 3993 3833 4000 3834 3821 3861 3799 
3862 3520 3325 3930 3752 3209 3843 3958 3798 
3980 3780 2752 3326 3443 3772 2868 3857 3902 
3829 2550 3968 3872 3992 3743 3822 3733 3983 
3792 3800 3753 3521 3883 2753 3725 3694 3935 
3969 3724 3444 3936 3967 3693 3948 3893 2754 
2990 3163 
type 1 407 int
2 2 2 2 2 2 2 2 2 
2 2 2 2 2 2 2 2 2 
2 2 2 2 2 2 2 2 2 
2 2 2 2 2 2 2 2 2 
2 2 2 2 2 2 2 2 2 
2 2 2 2 2 2 2 2 2 
2 2 2 2 2 2 2 2 2 
2 2 2 2 2 2 2 2 2 
2 2 2 2 2 2 2 2 2 
2 2 2 2 2 2 2 2 2 
2 2 2 2 2 2 2 2 2 
2 2 2 2 2 2 2 2 2 
2 2 2 2 2 2 2 2 2 
2 2 2 2 2 2 2 2 2 
2 2 2 2 2 2 2 2 2 
2 2 2 2 2 2 2 2 2 
2 2 2 2 2 2 2 2 2 
2 2 2 2 2 2 2 2 2 
2 2 2 2 2 2 2 2 2 
2 2 2 2 2 2 2 2 2 
2 2 2 2 2 2 2 2 2 
2 2 2 2 2 2 2 2 2 
2 2 2 2 2 2 2 2 2 
2 2 2 2 2 2 2 2 2 
2 2 2 2 2 2 2 2 2 
2 2 2 2 2 2 2 2 2 
2 2 2 2 2 2 2 2 2 
2 2 2 2 2 2 2 2 2 
2 2 2 2 2 2 2 2 2 
2 2 2 2 2 2 2 2 2 
2 2 2 2 2 2 2 2 2 
2 2 2 2 2 2 2 2 2 
2 2 2 2 2 2 2 2 2 
2 2 2 2 2 2 2 2 2 
2 2 2 2 2 2 2 2 2 
2 2 2 2 2 2 2 2 2 
2 2 2 2 2 2 2 2 2 
2 2 2 2 2 2 2 2 2 
2 2 2 2 2 2 2 2 2 
2 2 2 2 2 2 2 2 2 
2 2 2 2 2 2 2 2 2 
2 2 2 2 2 2 2 2 2 
2 2 2 2 2 2 2 2 2 
2 2 2 2 2 2 2 2 2 
2 2 2 2 2 2 2 2 2 
2 2 
i 3 407 int
0 0 0 0 0 0 0 0 0 
0 0 0 0 0 0 0 0 0 
0 0 0 0 0 0 0 0 0 
0 0 0 0 0 0 0 0 0 
0 0 0 0 0 0 0 0 0 
0 0 0 0 0 0 0 0 0 
0 0 0 0 0 0 0 0 0 
0 0 0 0 0 0 0 0 0 
0 0 0 0 0 0 0 0 0 
0 0 0 0 0 0 0 0 0 
0 0 0 0 0 0 0 0 0 
0 0 0 0 0 0 0 0 0 
0 0 0 0 0 0 0 0 0 
0 0 0 0 0 0 0 0 0 
0 0 0 0 0 0 0 0 0 
0 0 0 0 0 0 0 0 0 
0 0 0 0 0 0 0 0 0 
0 0 0 0 0 0 0 0 0 
0 0 0 0 0 0 0 0 0 
0 0 0 0 0 0 0 0 0 
0 0 0 0 0 0 0 0 0 
0 0 0 0 0 0 0 0 0 
0 0 0 0 0 0 0 0 0 
0 0 0 0 0 0 0 0 0 
0 0 0 0 0 0 0 0 0 
0 0 0 0 0 0 0 0 0 
0 0 0 0 0 0 0 0 0 
0 0 0 0 0 0 0 0 0 
0 0 0 0 0 0 0 0 0 
0 0 0 0 0 0 0 0 0 
0 0 0 0 0 0 0 0 0 
0 0 0 0 0 0 0 0 0 
0 0 0 0 0 0 0 0 0 
0 0 0 0 0 0 0 0 0 
0 0 0 0 0 0 0 0 0 
0 0 0 0 0 0 0 0 0 
0 0 0 0 0 0 0 0 0 
0 0 0 0 0 0 0 0 0 
0 0 0 0 0 0 0 0 0 
0 0 0 0 0 0 0 0 0 
0 0 0 0 0 0 0 0 0 
0 0 0 0 0 0 0 0 0 
0 0 0 0 0 0 0 0 0 
0 0 0 0 0 0 0 0 0 
0 0 0 0 0 0 0 0 0 
0 0 0 0 0 0 0 0 0 
0 0 0 0 0 0 0 0 0 
0 0 0 0 0 0 0 0 0 
0 0 0 0 0 0 0 0 0 
0 0 0 0 0 0 0 0 0 
0 0 0 0 0 0 0 0 0 
0 0 0 0 0 0 0 0 0 
0 0 0 0 0 0 0 0 0 
0 0 0 0 0 0 0 0 0 
0 0 0 0 0 0 0 0 0 
0 0 0 0 0 0 0 0 0 
0 0 0 0 0 0 0 0 0 
0 0 0 0 0 0 0 0 0 
0 0 0 0 0 0 0 0 0 
0 0 0 0 0 0 0 0 0 
0 0 0 0 0 0 0 0 0 
0 0 0 0 0 0 0 0 0 
0 0 0 0 0 0 0 0 0 
0 0 0 0 0 0 0 0 0 
0 0 0 0 0 0 0 0 0 
0 0 0 0 0 0 0 0 0 
0 0 0 0 0 0 0 0 0 
0 0 0 0 0 0 0 0 0 
0 0 0 0 0 0 0 0 0 
0 0 0 0 0 0 0 0 0 
0 0 0 0 0 0 0 0 0 
0 0 0 0 0 0 0 0 0 
0 0 0 0 0 0 0 0 0 
0 0 0 0 0 0 0 0 0 
0 0 0 0 0 0 0 0 0 
0 0 0 0 0 0 0 0 0 
0 0 0 0 0 0 0 0 0 
0 0 0 0 0 0 0 0 0 
0 0 0 0 0 0 0 0 0 
0 0 0 0 0 0 0 0 0 
0 0 0 0 0 0 0 0 0 
0 0 0 0 0 0 0 0 0 
0 0 0 0 0 0 0 0 0 
0 0 0 0 0 0 0 0 0 
0 0 0 0 0 0 0 0 0 
0 0 0 0 0 0 0 0 0 
0 0 0 0 0 0 0 0 0 
0 0 0 0 0 0 0 0 0 
0 0 0 0 0 0 0 0 0 
0 0 0 0 0 0 0 0 0 
0 0 0 0 0 0 0 0 0 
0 0 0 0 0 0 0 0 0 
0 0 0 0 0 0 0 0 0 
0 0 0 0 0 0 0 0 0 
0 0 0 0 0 0 0 0 0 
0 0 0 0 0 0 0 0 0 
0 0 0 0 0 0 0 0 0 
0 0 0 0 0 0 0 0 0 
0 0 0 0 0 0 0 0 0 
0 0 0 0 0 0 0 0 0 
0 0 0 0 0 0 0 0 0 
0 0 0 0 0 0 0 0 0 
0 0 0 0 0 0 0 0 0 
0 0 0 0 0 0 0 0 0 
0 0 0 0 0 0 0 0 0 
0 0 0 0 0 0 0 0 0 
0 0 0 0 0 0 0 0 0 
0 0 0 0 0 0 0 0 0 
0 0 0 0 0 0 0 0 0 
0 0 0 0 0 0 0 0 0 
0 0 0 0 0 0 0 0 0 
0 0 0 0 0 0 0 0 0 
0 0 0 0 0 0 0 0 0 
0 0 0 0 0 0 0 0 0 
0 0 0 0 0 0 0 0 0 
0 0 0 0 0 0 0 0 0 
0 0 0 0 0 0 0 0 0 
0 0 0 0 0 0 0 0 0 
0 0 0 0 0 0 0 0 0 
0 0 0 0 0 0 0 0 0 
0 0 0 0 0 0 0 0 0 
0 0 0 0 0 0 0 0 0 
0 0 0 0 0 0 0 0 0 
0 0 0 0 0 0 0 0 0 
0 0 0 0 0 0 0 0 0 
0 0 0 0 0 0 0 0 0 
0 0 0 0 0 0 0 0 0 
0 0 0 0 0 0 0 0 0 
0 0 0 0 0 0 0 0 0 
0 0 0 0 0 0 0 0 0 
0 0 0 0 0 0 0 0 0 
0 0 0 0 0 0 0 0 0 
0 0 0 0 0 0 0 0 0 
0 0 0 0 0 0 0 0 0 
0 0 0 0 0 0 0 0 0 
0 0 0 0 0 0 
v 3 407 double
0.011437581343 0.0064495035338 -0.011133559874 -0.0056303209371 0.0085283445581 0.016039859049 -0.027173646627 0.011902077028 0.021408443641 
-0.015970077835 0.15166809512 0.0078683031147 0.010048934566 -0.00070430313784 0.0034683114765 -0.13317801248 0.16221021249 0.0070055395523 
0.0084999301845 0.1323890659 0.0081926522313 0.0041098429884 0.30328549985 0.0085481915591 -0.015825932323 -0.0093599622889 0.054880867859 
-0.027682094838 0.035560805087 0.07204171858 0.00042695319134 0.13846042764 0.029105660503 0.088754276994 0.22662720955 0.01755179333 
0.0075502887383 -0.011589907357 0.0083803682834 -0.025736926657 0.022935827229 0.0054638990168 -0.19853840685 0.048221292243 -0.0035554696916 
-0.080920948392 -0.042132875242 0.070212812582 0.019798951085 0.040401127349 0.0076420378047 -0.078830096885 0.05744859893 0.00019912973901 
-0.032235806057 0.015450186834 0.090000174597 -0.00066328633309 0.27334262606 0.093316999735 0 0.410001241 0 
0.014992955642 -0.025645243798 0.04215090128 -0.052806535397 0.024323413529 0.073682984456 0.012718550083 0.067616469755 0.01425317236 
-0.19048707261 0.037453699347 -0.044591951551 -0.014669051972 0.098089901573 0.15276819269 -0.031250205073 0.21919385107 0.082559184695 
0.096087284017 0.12261288527 -0.004294039915 0.035121297983 0.12847363527 0.096812815135 -0.0019744625053 0.17072106895 -0.05554937502 
-0.024108631974 0.052866387327 -0.0092589620461 -0.023837693753 0.013424326694 0.030482934101 -0.058613904815 0.041850075802 0.013848537458 
0.12933529232 0.042588217061 0.051919416551 -0.025050164443 0.076281527845 0.10356541993 0.1383727102 0.10081244027 -0.098310755058 
-0.005644904192 0.11634111591 0.004857108426 -0.040956546694 0.26237529859 -0.077021290032 -0.0096575554909 0.27005267014 0.0080604148417 
0.17906924697 0.04465336239 0.12954131523 -0.097092786944 0.060812066546 0.13240196031 -0.097613623005 0.14261836488 -0.069878233524 
-0.02568388976 0.17898130461 0.043235618101 0.15312727312 0.17656285951 -0.0069606360303 0 0.39896583638 0 
-0.041178332009 0.14957725344 0.14796284926 0.32876983248 -0.031845621495 -0.32283421205 8.7304082862e-05 0.05658216547 0.0490846904 
-0.00010155981897 0.4026845298 0.00010091191765 0 0.4099646538 0 0 0.39895779965 -0.0048950405667 
-0.013439671783 0.51232874696 -0.080587636658 -0.023683525094 0.038479039595 0.077669425022 0.11795535952 0.0097730096812 0.18953233749 
-0.21182349314 0.046633813357 -0.020952048906 -0.12936023577 -0.043487840632 0.063024878278 -0.21558529215 -0.019513045433 -0.17941226195 
0 0.39875905054 0 -0.004507024569 0.40045571211 -0.019038581245 -1.4485258125e-05 0.39873630553 -3.634419112e-05 
-0.051741169069 0.04058371722 -0.053836692909 -0.082935369571 0.12454513688 0.22031739751 0.048239276178 0.099225294711 0.24497616456 
0.0073616794846 0.22860097262 0.0056379145434 0.013750131286 0.41310435568 -0.010249234026 -0.031545988205 0.03808721382 0.20551580488 
0.022134701501 0.099469048355 -0.23615431165 0.0048568421874 0.08945452959 -0.10391745121 0.1287683514 0.19121853907 0.11076579337 
-0.0006249839803 0.39654364795 -0.0035443033661 0.11894776992 0.030525204738 -0.0016192883287 -0.10463700881 -0.09401554567 -0.18572435433 
-0.0039167831326 0.051254836739 -0.001557137884 0.21273066105 0.083784470045 0.0040210919325 -0.035862658324 0.090291244517 0.064308977049 
0 0.39374558319 -0.0047274651976 0 0.41049660782 0 0.030768952669 0.038366551808 0.3088595884 
0.016105692653 -0.022889281795 -0.095186543937 0.15621356275 -0.0050176625416 0.10500660734 -0.019593090008 0.057115403233 0.099738465183 
0.14831821886 0.096433713588 0.0054818525004 -0.36665433723 0.044243831614 -0.19837922569 0.15225154347 0.067580660551 -0.094471712005 
0 0.39904491296 0 0 0.40508628054 1.1391752074e-05 0.10496808526 -0.011058480173 -0.089185180103 
-0.14104871598 0.066372794091 -0.059408977745 0.051333330431 7.1765048961e-05 0.015171943212 0.11689517866 0.034012877468 -0.026184469839 
0.045844753257 0.11028899352 -0.1898000073 0.11173750803 0.065437441398 -0.013712116863 -0.016476201133 0.099454444818 -0.084306564822 
0 0.38773520475 0 0.031590655792 0.043572963739 -0.02529784089 -0.0061600299512 0.11429591419 0.13432692073 
-0.011140416409 0.097767829241 -0.12921837017 -0.0030995011966 0.4005287818 -0.0015598553611 0.040199520073 -0.095870598549 -0.086165661967 
-0.046716239386 0.008393984018 -0.03300470256 -0.046634918245 -0.00040446379615 -0.042702985677 -0.10258678328 0.17127616261 -0.033722008942 
-0.16380292728 0.19000114531 -0.11205497034 -0.081077584478 0.27179021998 -0.19453844851 -0.018713004647 0.38875185117 7.8913229596e-15 
0.0017389604782 0.39882328398 -0.0017389604782 -0.041395108312 0.030254707256 -0.015962865519 -0.046082577918 0.018225688334 0.024099985736 
-0.02456028625 0.011359228832 -0.0113720337 0.069066592251 -0.054577519715 -0.030226366024 0.077184004256 0.066064098953 0.077633274331 
0.019787213071 -0.021501967877 -0.04342603547 -0.081684893755 -0.022103683302 -0.017092402979 -0.033229108723 0.13146619811 -0.072439225811 
0.0076454314498 0.10692208556 -0.019647122656 -0.15104217532 0.21350433729 -0.08847513098 0.0050133738183 0.03415893043 0.0051985059679 
0.068136284096 -0.014428601502 0.0099872882492 0.006069576639 0.039127362139 0.043807565819 -0.04239299415 0.032731008683 -0.025360640441 
0.14934816722 0.038916575791 0.17108908232 0.058087612515 0.020893658911 0.057573748421 -0.093883439559 0.14252171153 0.082969879669 
-0.029513261594 0.16173266479 0.02841832475 -0.3079784592 0.20546468663 -0.29548681616 -0.046054797591 0.035397971386 0.092164701031 
-0.021958819501 0.054191597684 0.048298013441 0.068320906178 0.022908983695 0.03113090375 -0.0094375276358 0.047072839183 -0.0043676764478 
0.0072362702748 0.058305934916 0.019862412065 0.08384646776 0.068416862212 0.012924444158 0.058732896601 0.0018647378788 -0.0052902285587 
0.045861773211 0.010416166083 0.066043061475 -0.074711751139 -0.0080621039028 0.03428911449 0.024759942221 0.078324211804 0.044473428344 
0.13707801014 0.10385176188 0.11392848556 -0.0021049833578 0.38899466784 -0.000126565171 0.14839527413 0.58811835358 0.043079860813 
-0.0096835260449 0.035256949499 0.052062394919 -0.065001341762 0.019554148352 0.081816480773 0.1075239518 0.021635070801 0.091420686529 
-0.00052740355422 0.38710693906 -0.0011288573072 -0.0020887119363 0.38986351732 -0.0070491576428 -0.055878085168 0.018552676409 0.077319089015 
0.041737892857 0.0073860254482 0.11542297028 -0.028734807798 0.24194419456 -0.0010331898798 0 0.41007381017 0 
0.035405350312 -0.063905926467 0.12156320456 0.021090019239 0.040968074452 -0.041410956983 0.17678183662 0.045691837597 0.11687765623 
-0.029110559063 0.018207847277 -0.076876075613 -0.20612077071 0.03697736462 -0.10285249585 0.0020429030869 0.39521847008 -0.0010600737839 
-0.0016610994383 0.29654940525 0.0087496036546 -0.036678867017 0.018828960769 0.032514711551 -0.1805049794 0.05781629622 -0.033949824544 
-0.13645977946 0.12244416595 0.087249181893 0.031131950044 0.032706997154 0.10031977015 -0.018697854525 0.19836571032 0.034234384001 
0.012190777852 0.32929773123 0.012633784709 0 0.41052549956 0 0.037498491992 -0.098639938923 0.1588119919 
-0.00044574958215 0.029243049089 0.10201140501 0 0.39882697079 0 0 0.39925497113 0 
0.0023122065005 0.39628274053 0.0023597342796 0.00056348824668 0.40152978625 0.00027402949384 0 0.39875819248 -0.0097057056303 
-0.076416026534 0.17725342488 -0.024615689046 0.044804293718 0.32049728826 -0.0062287931832 0 0.38755395842 -0.0050852537353 
0.16820795446 0.029549338883 0.12446726565 -0.20190154007 0.19481537035 0.026359778761 0.0002814165965 0.39586236908 -0.0042450652735 
0 0.39872827304 0 -8.0938774001e-06 0.39894161244 0 -0.00036883905222 0.40129851273 -0.0077537456699 
0 0.38761842277 0 -0.0033082998542 0.13377592098 -0.0033247496929 0.042256730961 0.27150018908 0.1254322865 
0.0012503121485 0.38702661056 -0.005926866043 0 0.41016565709 9.1963837408e-06 0.0002436659938 0.41148920957 0.0063921664547 
-0.0046666478446 0.28784143851 -0.0046798590522 0.033991363402 0.19247764267 -0.017820487125 -0.019718467175 0.29448520505 0.12092734083 
-0.027545708121 0.38422685286 0.11030070993 -0.012212897362 0.075823784745 -0.18361467497 -0.018673129003 0.22509155007 0.014510142177 
0 0.3987994427 6.9043932791e-06 0.0024336544151 0.40286253151 0.0042270621109 -0.002634341908 0.41110012695 0.0010203462189 
-0.00032362647397 0.39932044177 -0.0012764948875 0.00051441565056 0.39864167423 0.0017178022421 0.018667793496 0.027909356118 -0.091149253707 
0.020188320678 0.34687093157 -0.00040929342903 0.086053560792 0.32893311383 -0.0017445639745 -0.30057167303 -0.0057001018753 -0.016076409613 
-0.065519803067 0.18878087013 0.083558697751 -0.099007385536 0.082080622725 -0.049446953515 0.003430585782 0.26858144658 0.036345321829 